 vasp.5.4.1 24Jun15 (build Jun 30 2015 11:48:55) complex                        
  
 executed on           IFC91_ompi date 2017.09.15  03:15:10
 running on    4 total cores
 distrk:  each k-point on    4 cores,    1 groups
 distr:  one band on NCORES_PER_BAND=   1 cores,    4 groups


--------------------------------------------------------------------------------------------------------


 INCAR:
 POTCAR:    PAW_PBE Na_pv 05Jan2001               
 POTCAR:   PAW_PBE Au 06Sep2000                   
 POTCAR:   PAW_PBE F 08Apr2002                    
 POTCAR:    PAW_PBE Na_pv 05Jan2001               
   VRHFIN =Na: p6s1                                                             
   LEXCH  = PE                                                                  
   EATOM  =   766.0439 eV,   56.3026 Ry                                         
                                                                                
   TITEL  = PAW_PBE Na_pv 05Jan2001                                             
   LULTRA =        F    use ultrasoft PP ?                                      
   IUNSCR =        1    unscreen: 0-lin 1-nonlin 2-no                           
   RPACOR =    1.800    partial core radius                                     
   POMASS =   22.990; ZVAL   =    7.000    mass and valenz                      
   RCORE  =    2.200    outmost cutoff radius                                   
   RWIGS  =    2.200; RWIGS  =    1.164    wigner-seitz radius (au A)           
   ENMAX  =  259.561; ENMIN  =  194.671 eV                                      
   ICORE  =        2    local potential                                         
   LCOR   =        T    correct aug charges                                     
   LPAW   =        T    paw PP                                                  
   EAUG   =  368.056                                                            
   DEXC   =    -.009                                                            
   RMAX   =    2.862    core radius for proj-oper                               
   RAUG   =    1.300    factor for augmentation sphere                          
   RDEP   =    2.259    radius for radial grids                                 
   QCUT   =   -4.368; QGAM   =    8.735    optimization parameters              
                                                                                
   Description                                                                  
     l     E      TYP  RCUT    TYP  RCUT                                        
     1   .000     23  2.000                                                     
     1   .500     23  2.000                                                     
     0   .000     23  2.200                                                     
     0  1.000     23  2.200                                                     
     2  -.100     23  2.000                                                     
  local pseudopotential read in
  partial core-charges read in
  atomic valenz-charges read in
  non local Contribution for L=           1  read in
    real space projection operators read in
  non local Contribution for L=           1  read in
    real space projection operators read in
  non local Contribution for L=           0  read in
    real space projection operators read in
  non local Contribution for L=           0  read in
    real space projection operators read in
    PAW grid and wavefunctions read in
 
   number of l-projection  operators is LMAX  =           4
   number of lm-projection operators is LMMAX =           8
 
 POTCAR:   PAW_PBE Au 06Sep2000                   
   VRHFIN =Au: s1d10                                                            
   LEXCH  = PE                                                                  
   EATOM  =   926.0567 eV,   68.0632 Ry                                         
                                                                                
   TITEL  = PAW_PBE Au 06Sep2000                                                
   LULTRA =        F    use ultrasoft PP ?                                      
   IUNSCR =        1    unscreen: 0-lin 1-nonlin 2-no                           
   RPACOR =    2.330    partial core radius                                     
   POMASS =  196.966; ZVAL   =   11.000    mass and valenz                      
   RCORE  =    2.500    outmost cutoff radius                                   
   RWIGS  =    2.840; RWIGS  =    1.503    wigner-seitz radius (au A)           
   ENMAX  =  229.948; ENMIN  =  172.461 eV                                      
   RCLOC  =    1.964    cutoff for local pot                                    
   LCOR   =        T    correct aug charges                                     
   LPAW   =        T    paw PP                                                  
   EAUG   =  356.670                                                            
   DEXC   =    -.025                                                            
   RMAX   =    3.041    core radius for proj-oper                               
   RAUG   =    1.300    factor for augmentation sphere                          
   RDEP   =    2.598    radius for radial grids                                 
   QCUT   =   -4.111; QGAM   =    8.222    optimization parameters              
                                                                                
   Description                                                                  
     l     E      TYP  RCUT    TYP  RCUT                                        
     2   .000     23  2.500                                                     
     2   .000     23  2.500                                                     
     0   .000     23  2.500                                                     
     0   .000     23  2.500                                                     
     1  -.200     23  2.500                                                     
     1   .000     23  2.500                                                     
     3   .000      7   .000                                                     
  local pseudopotential read in
  partial core-charges read in
  atomic valenz-charges read in
  non local Contribution for L=           2  read in
    real space projection operators read in
  non local Contribution for L=           2  read in
    real space projection operators read in
  non local Contribution for L=           0  read in
    real space projection operators read in
  non local Contribution for L=           0  read in
    real space projection operators read in
  non local Contribution for L=           1  read in
    real space projection operators read in
  non local Contribution for L=           1  read in
    real space projection operators read in
    PAW grid and wavefunctions read in
 
   number of l-projection  operators is LMAX  =           6
   number of lm-projection operators is LMMAX =          18
 
 POTCAR:   PAW_PBE F 08Apr2002                    
   VRHFIN =F: s2p5                                                              
   LEXCH  = PE                                                                  
   EATOM  =   659.4942 eV,   48.4715 Ry                                         
                                                                                
   TITEL  = PAW_PBE F 08Apr2002                                                 
   LULTRA =        F    use ultrasoft PP ?                                      
   IUNSCR =        0    unscreen: 0-lin 1-nonlin 2-no                           
   RPACOR =     .000    partial core radius                                     
   POMASS =   18.998; ZVAL   =    7.000    mass and valenz                      
   RCORE  =    1.520    outmost cutoff radius                                   
   RWIGS  =    1.500; RWIGS  =     .794    wigner-seitz radius (au A)           
   ENMAX  =  400.000; ENMIN  =  300.000 eV                                      
   ICORE  =        2    local potential                                         
   LCOR   =        T    correct aug charges                                     
   LPAW   =        T    paw PP                                                  
   EAUG   =  613.614                                                            
   DEXC   =     .000                                                            
   RMAX   =    2.254    core radius for proj-oper                               
   RAUG   =    1.300    factor for augmentation sphere                          
   RDEP   =    1.539    radius for radial grids                                 
   QCUT   =   -5.545; QGAM   =   11.091    optimization parameters              
                                                                                
   Description                                                                  
     l     E      TYP  RCUT    TYP  RCUT                                        
     0   .000     23  1.200                                                     
     0  -.700     23  1.200                                                     
     1   .000     23  1.520                                                     
     1   .100     23  1.520                                                     
     2   .000      7  1.500                                                     
  local pseudopotential read in
  atomic valenz-charges read in
  non local Contribution for L=           0  read in
    real space projection operators read in
  non local Contribution for L=           0  read in
    real space projection operators read in
  non local Contribution for L=           1  read in
    real space projection operators read in
  non local Contribution for L=           1  read in
    real space projection operators read in
    PAW grid and wavefunctions read in
 
   number of l-projection  operators is LMAX  =           4
   number of lm-projection operators is LMMAX =           8
 
 Optimization of the real space projectors (new method)

 maximal supplied QI-value         = 17.01
 optimisation between [QCUT,QGAM] = [ 11.57, 23.30] = [ 37.45,152.03] Ry 
 Optimized for a Real-space Cutoff    1.25 Angstroem

   l    n(q)    QCUT    max X(q) W(low)/X(q) W(high)/X(q)  e(spline) 
   1      8    11.565     5.105    0.28E-04    0.12E-04    0.25E-07
   1      8    11.565     6.428    0.22E-03    0.17E-03    0.77E-07
   0      9    11.565    36.712    0.15E-04    0.28E-04    0.12E-07
   0      9    11.565    84.879    0.99E-04    0.22E-03    0.11E-06
 Optimization of the real space projectors (new method)

 maximal supplied QI-value         = 15.12
 optimisation between [QCUT,QGAM] = [ 11.64, 23.28] = [ 37.95,151.78] Ry 
 Optimized for a Real-space Cutoff    1.49 Angstroem

   l    n(q)    QCUT    max X(q) W(low)/X(q) W(high)/X(q)  e(spline) 
   2      9    11.641     3.714    0.29E-04    0.26E-05    0.61E-07
   2      9    11.641    30.244    0.92E-04    0.19E-03    0.70E-06
   0     10    11.641    12.875    0.11E-04    0.75E-05    0.20E-07
   0     10    11.641    62.664    0.13E-03    0.12E-03    0.45E-06
   1     10    11.641     6.953    0.24E-04    0.22E-04    0.57E-07
   1     10    11.641    10.039    0.12E-03    0.51E-04    0.21E-06
 Optimization of the real space projectors (new method)

 maximal supplied QI-value         = 24.76
 optimisation between [QCUT,QGAM] = [ 11.64, 23.27] = [ 37.91,151.63] Ry 
 Optimized for a Real-space Cutoff    1.04 Angstroem

   l    n(q)    QCUT    max X(q) W(low)/X(q) W(high)/X(q)  e(spline) 
   0      7    11.635     4.906    0.48E-04    0.15E-03    0.36E-07
   0      7    11.635     5.365    0.12E-03    0.48E-03    0.17E-06
   1      7    11.635     2.511    0.70E-04    0.18E-03    0.19E-07
   1      7    11.635     3.801    0.23E-03    0.36E-03    0.19E-06
  PAW_PBE Na_pv 05Jan2001               :
 energy of atom  1       EATOM= -766.0439
 kinetic energy error for atom=    0.0019 (will be added to EATOM!!)
 PAW_PBE Au 06Sep2000                   :
 energy of atom  2       EATOM= -926.0567
 kinetic energy error for atom=    0.0034 (will be added to EATOM!!)
 PAW_PBE F 08Apr2002                    :
 energy of atom  3       EATOM= -659.4942
 kinetic energy error for atom=    0.0323 (will be added to EATOM!!)
 
 
 POSCAR: Na3 Au1 F6                              
  positions in direct lattice
  velocities in cartesian coordinates
 exchange correlation table for  LEXCH =        8
   RHO(1)=    0.500       N(1)  =     2000
   RHO(2)=  100.500       N(2)  =     4000
 


--------------------------------------------------------------------------------------------------------


 ion  position               nearest neighbor table
   1  0.250  0.250  0.250-
   2  0.750  0.750  0.750-
   3  0.500  0.500  0.500-   5 2.19   7 2.19   6 2.19  10 2.19   9 2.19   8 2.19
   4  0.000  0.000  0.000-   6 2.13  10 2.13   7 2.13   5 2.13   9 2.13   8 2.13
   5  0.246  0.754  0.246-   4 2.13   3 2.19
   6  0.754  0.754  0.246-   4 2.13   3 2.19
   7  0.754  0.246  0.754-   4 2.13   3 2.19
   8  0.754  0.246  0.246-   4 2.13   3 2.19
   9  0.246  0.754  0.754-   4 2.13   3 2.19
  10  0.246  0.246  0.754-   4 2.13   3 2.19
 
  LATTYP: Found a face centered cubic cell.
 ALAT       =     8.6275097471
  
  Lattice vectors:
  
 A1 = (   6.1005705786,  -0.0000001630,  -0.0000001153)
 A2 = (   3.0502855056,   5.2832490567,  -0.0000000576)
 A3 = (   3.0502855056,   1.7610829645,   4.9810949945)


Analysis of symmetry for initial positions (statically):
=====================================================================
 Subroutine PRICEL returns:
 Original cell was already a primitive cell.
 

 Routine SETGRP: Setting up the symmetry group for a 
 face centered cubic supercell.


 Subroutine GETGRP returns: Found 48 space group operations
 (whereof 48 operations were pure point group operations)
 out of a pool of 48 trial point group operations.


The static configuration has the point symmetry O_h .


Analysis of symmetry for dynamics (positions and initial velocities):
=====================================================================
 Subroutine PRICEL returns:
 Original cell was already a primitive cell.
 

 Routine SETGRP: Setting up the symmetry group for a 
 face centered cubic supercell.


 Subroutine GETGRP returns: Found 48 space group operations
 (whereof 48 operations were pure point group operations)
 out of a pool of 48 trial point group operations.


The dynamic configuration has the point symmetry O_h .


Analysis of magnetic symmetry:
=====================================================================
 Subroutine PRICEL returns:
 Original cell was already a primitive cell.
 

 Subroutine MAGSYM returns: Found 48 space group operations
 (whereof 48 operations were pure point group operations)
 out of a pool of 48 trial space group operations
 (whereof 48 operations were pure point group operations)
 and found also     1 'primitive' translations


The magnetic configuration has the point symmetry O_h .
 
 
 KPOINTS: k-points                                

Automatic generation of k-mesh.
Space group operators:
 irot       det(A)        alpha          n_x          n_y          n_z        tau_x        tau_y        tau_z
    1     1.000000     0.000002     1.000000     0.000000     0.000000     0.000000     0.000000     0.000000
    2    -1.000000     0.000002     1.000000     0.000000     0.000000     0.000000     0.000000     0.000000
    3     1.000000   120.000000    -0.816497    -0.471404    -0.333333     0.000000     0.000000     0.000000
    4    -1.000000   120.000000    -0.816497    -0.471404    -0.333333     0.000000     0.000000     0.000000
    5     1.000000   120.000000     0.816497     0.471404     0.333333     0.000000     0.000000     0.000000
    6    -1.000000   120.000000     0.816497     0.471404     0.333333     0.000000     0.000000     0.000000
    7     1.000000    90.000000    -0.707107    -0.408248     0.577350     0.000000     0.000000     0.000000
    8    -1.000000    90.000000    -0.707107    -0.408248     0.577350     0.000000     0.000000     0.000000
    9     1.000000   179.999999     1.000000     0.000000     0.000000     0.000000     0.000000     0.000000
   10    -1.000000   179.999999     1.000000     0.000000     0.000000     0.000000     0.000000     0.000000
   11     1.000000    90.000000     0.707107    -0.408248     0.577350     0.000000     0.000000     0.000000
   12    -1.000000    90.000000     0.707107    -0.408248     0.577350     0.000000     0.000000     0.000000
   13     1.000000   179.999999     0.707107     0.408248    -0.577350     0.000000     0.000000     0.000000
   14    -1.000000   179.999999     0.707107     0.408248    -0.577350     0.000000     0.000000     0.000000
   15     1.000000   120.000000     0.816497    -0.471405    -0.333333     0.000000     0.000000     0.000000
   16    -1.000000   120.000000     0.816497    -0.471405    -0.333333     0.000000     0.000000     0.000000
   17     1.000000   120.000000     0.000000    -0.942809     0.333333     0.000000     0.000000     0.000000
   18    -1.000000   120.000000     0.000000    -0.942809     0.333333     0.000000     0.000000     0.000000
   19     1.000000    90.000000     0.707107     0.408248    -0.577350     0.000000     0.000000     0.000000
   20    -1.000000    90.000000     0.707107     0.408248    -0.577350     0.000000     0.000000     0.000000
   21     1.000000    90.000000     0.000000    -0.816497    -0.577350     0.000000     0.000000     0.000000
   22    -1.000000    90.000000     0.000000    -0.816497    -0.577350     0.000000     0.000000     0.000000
   23     1.000000   179.999999     0.500000     0.866025     0.000000     0.000000     0.000000     0.000000
   24    -1.000000   179.999999     0.500000     0.866025     0.000000     0.000000     0.000000     0.000000
   25     1.000000   120.000000     0.000000     0.942809    -0.333333     0.000000     0.000000     0.000000
   26    -1.000000   120.000000     0.000000     0.942809    -0.333333     0.000000     0.000000     0.000000
   27     1.000000   120.000000     0.000000     0.000000    -1.000000     0.000000     0.000000     0.000000
   28    -1.000000   120.000000     0.000000     0.000000    -1.000000     0.000000     0.000000     0.000000
   29     1.000000   180.000000     0.000000    -0.816497    -0.577350     0.000000     0.000000     0.000000
   30    -1.000000   180.000000     0.000000    -0.816497    -0.577350     0.000000     0.000000     0.000000
   31     1.000000    90.000000    -0.707107     0.408248    -0.577350     0.000000     0.000000     0.000000
   32    -1.000000    90.000000    -0.707107     0.408248    -0.577350     0.000000     0.000000     0.000000
   33     1.000000   180.000000     0.500000     0.288675     0.816497     0.000000     0.000000     0.000000
   34    -1.000000   180.000000     0.500000     0.288675     0.816497     0.000000     0.000000     0.000000
   35     1.000000    90.000000     0.000000     0.816497     0.577350     0.000000     0.000000     0.000000
   36    -1.000000    90.000000     0.000000     0.816497     0.577350     0.000000     0.000000     0.000000
   37     1.000000   120.000000    -0.816497     0.471405     0.333333     0.000000     0.000000     0.000000
   38    -1.000000   120.000000    -0.816497     0.471405     0.333333     0.000000     0.000000     0.000000
   39     1.000000   179.999999    -0.707107     0.408248    -0.577350     0.000000     0.000000     0.000000
   40    -1.000000   179.999999    -0.707107     0.408248    -0.577350     0.000000     0.000000     0.000000
   41     1.000000   120.000000     0.000000     0.000000     1.000000     0.000000     0.000000     0.000000
   42    -1.000000   120.000000     0.000000     0.000000     1.000000     0.000000     0.000000     0.000000
   43     1.000000   179.999999     0.000000    -0.577350     0.816497     0.000000     0.000000     0.000000
   44    -1.000000   179.999999     0.000000    -0.577350     0.816497     0.000000     0.000000     0.000000
   45     1.000000   179.999999    -0.500000     0.866025     0.000000     0.000000     0.000000     0.000000
   46    -1.000000   179.999999    -0.500000     0.866025     0.000000     0.000000     0.000000     0.000000
   47     1.000000   179.999999    -0.500000     0.288675     0.816497     0.000000     0.000000     0.000000
   48    -1.000000   179.999999    -0.500000     0.288675     0.816497     0.000000     0.000000     0.000000
 
 Subroutine IBZKPT returns following result:
 ===========================================
 
 Found     47 irreducible k-points:
 
 Following reciprocal coordinates:
            Coordinates               Weight
  0.000000  0.000000  0.000000      1.000000
  0.100000  0.000000  0.000000      8.000000
  0.200000  0.000000  0.000000      8.000000
  0.300000  0.000000  0.000000      8.000000
  0.400000  0.000000  0.000000      8.000000
  0.500000  0.000000  0.000000      4.000000
  0.100000  0.100000  0.000000      6.000000
  0.200000  0.100000  0.000000     24.000000
  0.300000  0.100000  0.000000     24.000000
  0.400000  0.100000  0.000000     24.000000
  0.500000  0.100000  0.000000     24.000000
 -0.400000  0.100000  0.000000     24.000000
 -0.300000  0.100000  0.000000     24.000000
 -0.200000  0.100000  0.000000     24.000000
 -0.100000  0.100000  0.000000     12.000000
  0.200000  0.200000  0.000000      6.000000
  0.300000  0.200000  0.000000     24.000000
  0.400000  0.200000  0.000000     24.000000
  0.500000  0.200000  0.000000     24.000000
 -0.400000  0.200000  0.000000     24.000000
 -0.300000  0.200000  0.000000     24.000000
 -0.200000  0.200000  0.000000     12.000000
  0.300000  0.300000  0.000000      6.000000
  0.400000  0.300000  0.000000     24.000000
  0.500000  0.300000  0.000000     24.000000
 -0.400000  0.300000  0.000000     24.000000
 -0.300000  0.300000  0.000000     12.000000
  0.400000  0.400000  0.000000      6.000000
  0.500000  0.400000  0.000000     24.000000
 -0.400000  0.400000  0.000000     12.000000
  0.500000  0.500000  0.000000      3.000000
  0.300000  0.200000  0.100000     24.000000
  0.400000  0.200000  0.100000     48.000000
  0.500000  0.200000  0.100000     48.000000
 -0.400000  0.200000  0.100000     24.000000
  0.400000  0.300000  0.100000     24.000000
  0.500000  0.300000  0.100000     48.000000
 -0.400000  0.300000  0.100000     48.000000
 -0.300000  0.300000  0.100000     48.000000
 -0.200000  0.300000  0.100000     24.000000
  0.500000  0.400000  0.100000     24.000000
 -0.400000  0.400000  0.100000     48.000000
 -0.300000  0.400000  0.100000     24.000000
 -0.400000  0.500000  0.100000     12.000000
 -0.400000  0.400000  0.200000     24.000000
 -0.300000  0.400000  0.200000     24.000000
 -0.300000  0.500000  0.200000     12.000000
 
 Following cartesian coordinates:
            Coordinates               Weight
  0.000000  0.000000  0.000000      1.000000
  0.016392 -0.009464 -0.006692      8.000000
  0.032784 -0.018928 -0.013384      8.000000
  0.049176 -0.028392 -0.020076      8.000000
  0.065568 -0.037855 -0.026768      8.000000
  0.081960 -0.047319 -0.033460      4.000000
  0.016392  0.009464 -0.013384      6.000000
  0.032784  0.000000 -0.020076     24.000000
  0.049176 -0.009464 -0.026768     24.000000
  0.065568 -0.018928 -0.033460     24.000000
  0.081960 -0.028392 -0.040152     24.000000
 -0.065568  0.056783  0.020076     24.000000
 -0.049176  0.047319  0.013384     24.000000
 -0.032784  0.037855  0.006692     24.000000
 -0.016392  0.028392  0.000000     12.000000
  0.032784  0.018928 -0.026768      6.000000
  0.049176  0.009464 -0.033460     24.000000
  0.065568  0.000000 -0.040152     24.000000
  0.081960 -0.009464 -0.046844     24.000000
 -0.065568  0.075711  0.013384     24.000000
 -0.049176  0.066247  0.006692     24.000000
 -0.032784  0.056783  0.000000     12.000000
  0.049176  0.028392 -0.040152      6.000000
  0.065568  0.018928 -0.046844     24.000000
  0.081960  0.009464 -0.053536     24.000000
 -0.065568  0.094639  0.006692     24.000000
 -0.049176  0.085175  0.000000     12.000000
  0.065568  0.037855 -0.053536      6.000000
  0.081960  0.028392 -0.060228     24.000000
 -0.065568  0.113566  0.000000     12.000000
  0.081960  0.047319 -0.066920      3.000000
  0.049176  0.009464 -0.013384     24.000000
  0.065568  0.000000 -0.020076     48.000000
  0.081960 -0.009464 -0.026768     48.000000
 -0.065568  0.075711  0.033460     24.000000
  0.065568  0.018928 -0.026768     24.000000
  0.081960  0.009464 -0.033460     48.000000
 -0.065568  0.094639  0.026768     48.000000
 -0.049176  0.085175  0.020076     48.000000
 -0.032784  0.075711  0.013384     24.000000
  0.081960  0.028392 -0.040152     24.000000
 -0.065568  0.113566  0.020076     48.000000
 -0.049176  0.104103  0.013384     24.000000
 -0.065568  0.132494  0.013384     12.000000
 -0.065568  0.113566  0.040152     24.000000
 -0.049176  0.104103  0.033460     24.000000
 -0.049176  0.123030  0.026768     12.000000
 
 TETIRR: Found    148 inequivalent tetrahedra from     6000


--------------------------------------------------------------------------------------------------------




 Dimension of arrays:
   k-points           NKPTS =     47   k-points in BZ     NKDIM =     47   number of bands    NBANDS=     48
   number of dos      NEDOS =   3001   number of ions     NIONS =     10
   non local maximal  LDIM  =      6   non local SUM 2l+1 LMDIM =     18
   total plane-waves  NPLWV = 110592
   max r-space proj   IRMAX =   9578   max aug-charges    IRDMAX=  42320
   dimension x,y,z NGX =    48 NGY =   48 NGZ =   48
   dimension x,y,z NGXF=    96 NGYF=   96 NGZF=   96
   support grid    NGXF=    96 NGYF=   96 NGZF=   96
   ions per type =               3   1   6
 NGX,Y,Z   is equivalent  to a cutoff of  13.08, 13.08, 13.08 a.u.
 NGXF,Y,Z  is equivalent  to a cutoff of  26.16, 26.16, 26.16 a.u.


 I would recommend the setting:
   dimension x,y,z NGX =    45 NGY =   45 NGZ =   45
 SYSTEM =  unknown system                          
 POSCAR =  Na3 Au1 F6                              

 Startparameter for this run:
   NWRITE =      2    write-flag & timer
   PREC   = accura    normal or accurate (medium, high low for compatibility)
   ISTART =      0    job   : 0-new  1-cont  2-samecut
   ICHARG =      1    charge: 1-file 2-atom 10-const
   ISPIN  =      2    spin polarized calculation?
   LNONCOLLINEAR =      F non collinear calculations
   LSORBIT =      F    spin-orbit coupling
   INIWAV =      1    electr: 0-lowe 1-rand  2-diag
   LASPH  =      F    aspherical Exc in radial PAW
   METAGGA=      F    non-selfconsistent MetaGGA calc.

 Electronic Relaxation 1
   ENCUT  =  520.0 eV  38.22 Ry    6.18 a.u.  11.34 11.34 11.34*2*pi/ulx,y,z
   ENINI  =  520.0     initial cutoff
   ENAUG  =  613.6 eV  augmentation charge cutoff
   NELM   =    100;   NELMIN=  2; NELMDL= -5     # of ELM steps 
   EDIFF  = 0.1E-04   stopping-criterion for ELM
   LREAL  =      T    real-space projection
   NLSPLINE    = F    spline interpolate recip. space projectors
   LCOMPAT=      F    compatible to vasp.4.4
   GGA_COMPAT  = T    GGA compatible to vasp.4.4-vasp.4.6
   LMAXPAW     = -100 max onsite density
   LMAXMIX     =    2 max onsite mixed and CHGCAR
   VOSKOWN=      0    Vosko Wilk Nusair interpolation
   ROPT   =   -0.00025  -0.00025  -0.00025
 Ionic relaxation
   EDIFFG = -.1E-01   stopping-criterion for IOM
   NSW    =      0    number of steps for IOM
   NBLOCK =      1;   KBLOCK =      1    inner block; outer block 
   IBRION =     -1    ionic relax: 0-MD 1-quasi-New 2-CG
   NFREE  =      0    steps in history (QN), initial steepest desc. (CG)
   ISIF   =      3    stress and relaxation
   IWAVPR =     10    prediction:  0-non 1-charg 2-wave 3-comb
   ISYM   =      2    0-nonsym 1-usesym 2-fastsym
   LCORR  =      T    Harris-Foulkes like correction to forces

   POTIM  = 0.5000    time-step for ionic-motion
   TEIN   =    0.0    initial temperature
   TEBEG  =    0.0;   TEEND  =   0.0 temperature during run
   SMASS  =  -3.00    Nose mass-parameter (am)
   estimated Nose-frequenzy (Omega)   =  0.10E-29 period in steps =****** mass=  -0.851E-27a.u.
   SCALEE = 1.0000    scale energy and forces
   NPACO  =    256;   APACO  = 16.0  distance and # of slots for P.C.
   PSTRESS=    0.0 pullay stress

  Mass of Ions in am
   POMASS =  22.99196.97 19.00
  Ionic Valenz
   ZVAL   =   7.00 11.00  7.00
  Atomic Wigner-Seitz radii
   RWIGS  =  -1.00 -1.00 -1.00
  virtual crystal weights 
   VCA    =   1.00  1.00  1.00
   NELECT =      74.0000    total number of electrons
   NUPDOWN=      -1.0000    fix difference up-down

 DOS related values:
   EMIN   =  -8.00;   EMAX   = 12.00  energy-range for DOS
   EFERMI =   0.00
   ISMEAR =    -5;   SIGMA  =   0.05  broadening in eV -4-tet -1-fermi 0-gaus

 Electronic relaxation 2 (details)
   IALGO  =     68    algorithm
   LDIAG  =      T    sub-space diagonalisation (order eigenvalues)
   LSUBROT=      F    optimize rotation matrix (better conditioning)
   TURBO    =      0    0=normal 1=particle mesh
   IRESTART =      0    0=no restart 2=restart with 2 vectors
   NREBOOT  =      0    no. of reboots
   NMIN     =      0    reboot dimension
   EREF     =   0.00    reference energy to select bands
   IMIX   =      4    mixing-type and parameters
     AMIX     =   0.40;   BMIX     =  1.00
     AMIX_MAG =   1.60;   BMIX_MAG =  1.00
     AMIN     =   0.10
     WC   =   100.;   INIMIX=   1;  MIXPRE=   1;  MAXMIX= -45

 Intra band minimization:
   WEIMIN = 0.0000     energy-eigenvalue tresh-hold
   EBREAK =  0.52E-07  absolut break condition
   DEPER  =   0.30     relativ break condition  

   TIME   =   0.40     timestep for ELM

  volume/ion in A,a.u.               =      16.05       108.34
  Fermi-wavevector in a.u.,A,eV,Ry     =   1.264600  2.389748 21.758626  1.599214
  Thomas-Fermi vector in A             =   2.397897
 
 Write flags
   LWAVE  =      F    write WAVECAR
   LCHARG =      T    write CHGCAR
   LVTOT  =      F    write LOCPOT, total local potential
   LVHAR  =      F    write LOCPOT, Hartree potential only
   LELF   =      F    write electronic localiz. function (ELF)
   LORBIT =     11    0 simple, 1 ext, 2 COOP (PROOUT)


 Dipole corrections
   LMONO  =      F    monopole corrections only (constant potential shift)
   LDIPOL =      F    correct potential (dipole corrections)
   IDIPOL =      0    1-x, 2-y, 3-z, 4-all directions 
   EPSILON=  1.0000000 bulk dielectric constant

 Exchange correlation treatment:
   GGA     =    --    GGA type
   LEXCH   =     8    internal setting for exchange type
   VOSKOWN=      0    Vosko Wilk Nusair interpolation
   LHFCALC =     F    Hartree Fock is set to
   LHFONE  =     F    Hartree Fock one center treatment
   AEXX    =    0.0000 exact exchange contribution

 Linear response parameters
   LEPSILON=     F    determine dielectric tensor
   LRPA    =     F    only Hartree local field effects (RPA)
   LNABLA  =     F    use nabla operator in PAW spheres
   LVEL    =     F    velocity operator in full k-point grid
   LINTERFAST=   F  fast interpolation
   KINTER  =     0    interpolate to denser k-point grid
   CSHIFT  =0.1000    complex shift for real part using Kramers Kronig
   OMEGAMAX=  -1.0    maximum frequency
   DEG_THRESHOLD= 0.2000000E-02 threshold for treating states as degnerate
   RTIME   =    0.100 relaxation time in fs

 Orbital magnetization related:
   ORBITALMAG=     F  switch on orbital magnetization
   LCHIMAG   =     F  perturbation theory with respect to B field
   DQ        =  0.001000  dq finite difference perturbation B field



--------------------------------------------------------------------------------------------------------


 Static calculation
 charge density and potential will be updated during run
 spin polarized calculation
 RMM-DIIS sequential band-by-band and
  variant of blocked Davidson during initial phase
 perform sub-space diagonalisation
    before iterative eigenvector-optimisation
 modified Broyden-mixing scheme, WC =      100.0
 initial mixing is a Kerker type mixing with AMIX =  0.4000 and BMIX =      1.0000
 Hartree-type preconditioning will be used
 using additional bands           11
 real space projection scheme for non local part
 use partial core corrections
 calculate Harris-corrections to forces 
   (improved forces if not selfconsistent)
 use gradient corrections 
 use of overlap-Matrix (Vanderbilt PP)
 Fermi weights with tetrahedron method with Bloechl corrections


--------------------------------------------------------------------------------------------------------


  energy-cutoff  :      520.00
  volume of cell :      160.54
      direct lattice vectors                 reciprocal lattice vectors
     6.100570579 -0.000000163 -0.000000115     0.163919090 -0.094638739 -0.066919694
     3.050285506  5.283249057 -0.000000058     0.000000004  0.189277464 -0.066919689
     3.050285506  1.761082965  4.981094994     0.000000004  0.000000000  0.200759068

  length of vectors
     6.100570579  6.100570650  6.100570647     0.200759070  0.200759068  0.200759068


 
 k-points in units of 2pi/SCALE and weight: k-points                                
   0.00000000  0.00000000  0.00000000       0.001
   0.01639191 -0.00946387 -0.00669197       0.008
   0.03278382 -0.01892775 -0.01338394       0.008
   0.04917573 -0.02839162 -0.02007591       0.008
   0.06556764 -0.03785550 -0.02676788       0.008
   0.08195954 -0.04731937 -0.03345985       0.004
   0.01639191  0.00946387 -0.01338394       0.006
   0.03278382  0.00000000 -0.02007591       0.024
   0.04917573 -0.00946388 -0.02676788       0.024
   0.06556764 -0.01892775 -0.03345985       0.024
   0.08195955 -0.02839162 -0.04015182       0.024
  -0.06556764  0.05678324  0.02007591       0.024
  -0.04917573  0.04731937  0.01338394       0.024
  -0.03278382  0.03785549  0.00669197       0.024
  -0.01639191  0.02839162  0.00000000       0.012
   0.03278382  0.01892775 -0.02676788       0.006
   0.04917573  0.00946387 -0.03345985       0.024
   0.06556764  0.00000000 -0.04015182       0.024
   0.08195955 -0.00946388 -0.04684378       0.024
  -0.06556764  0.07571099  0.01338394       0.024
  -0.04917573  0.06624711  0.00669197       0.024
  -0.03278382  0.05678324  0.00000000       0.012
   0.04917573  0.02839162 -0.04015182       0.006
   0.06556764  0.01892774 -0.04684378       0.024
   0.08195955  0.00946387 -0.05353575       0.024
  -0.06556763  0.09463873  0.00669197       0.024
  -0.04917573  0.08517486  0.00000000       0.012
   0.06556764  0.03785549 -0.05353575       0.006
   0.08195955  0.02839162 -0.06022772       0.024
  -0.06556763  0.11356648  0.00000000       0.012
   0.08195955  0.04731936 -0.06691969       0.003
   0.04917573  0.00946387 -0.01338394       0.024
   0.06556764  0.00000000 -0.02007591       0.048
   0.08195955 -0.00946388 -0.02676788       0.048
  -0.06556763  0.07571099  0.03345985       0.024
   0.06556764  0.01892774 -0.02676788       0.024
   0.08195955  0.00946387 -0.03345985       0.048
  -0.06556763  0.09463873  0.02676788       0.048
  -0.04917573  0.08517486  0.02007591       0.048
  -0.03278382  0.07571099  0.01338394       0.024
   0.08195955  0.02839162 -0.04015182       0.024
  -0.06556763  0.11356648  0.02007591       0.048
  -0.04917573  0.10410261  0.01338394       0.024
  -0.06556763  0.13249423  0.01338394       0.012
  -0.06556763  0.11356648  0.04015182       0.024
  -0.04917572  0.10410261  0.03345985       0.024
  -0.04917572  0.12303035  0.02676788       0.012
 
 k-points in reciprocal lattice and weights: k-points                                
   0.00000000  0.00000000  0.00000000       0.001
   0.10000000  0.00000000  0.00000000       0.008
   0.20000000  0.00000000  0.00000000       0.008
   0.30000000  0.00000000  0.00000000       0.008
   0.40000000  0.00000000  0.00000000       0.008
   0.50000000  0.00000000  0.00000000       0.004
   0.10000000  0.10000000  0.00000000       0.006
   0.20000000  0.10000000  0.00000000       0.024
   0.30000000  0.10000000  0.00000000       0.024
   0.40000000  0.10000000  0.00000000       0.024
   0.50000000  0.10000000  0.00000000       0.024
  -0.40000000  0.10000000  0.00000000       0.024
  -0.30000000  0.10000000  0.00000000       0.024
  -0.20000000  0.10000000  0.00000000       0.024
  -0.10000000  0.10000000  0.00000000       0.012
   0.20000000  0.20000000  0.00000000       0.006
   0.30000000  0.20000000  0.00000000       0.024
   0.40000000  0.20000000  0.00000000       0.024
   0.50000000  0.20000000  0.00000000       0.024
  -0.40000000  0.20000000  0.00000000       0.024
  -0.30000000  0.20000000  0.00000000       0.024
  -0.20000000  0.20000000  0.00000000       0.012
   0.30000000  0.30000000  0.00000000       0.006
   0.40000000  0.30000000  0.00000000       0.024
   0.50000000  0.30000000  0.00000000       0.024
  -0.40000000  0.30000000  0.00000000       0.024
  -0.30000000  0.30000000  0.00000000       0.012
   0.40000000  0.40000000  0.00000000       0.006
   0.50000000  0.40000000  0.00000000       0.024
  -0.40000000  0.40000000  0.00000000       0.012
   0.50000000  0.50000000  0.00000000       0.003
   0.30000000  0.20000000  0.10000000       0.024
   0.40000000  0.20000000  0.10000000       0.048
   0.50000000  0.20000000  0.10000000       0.048
  -0.40000000  0.20000000  0.10000000       0.024
   0.40000000  0.30000000  0.10000000       0.024
   0.50000000  0.30000000  0.10000000       0.048
  -0.40000000  0.30000000  0.10000000       0.048
  -0.30000000  0.30000000  0.10000000       0.048
  -0.20000000  0.30000000  0.10000000       0.024
   0.50000000  0.40000000  0.10000000       0.024
  -0.40000000  0.40000000  0.10000000       0.048
  -0.30000000  0.40000000  0.10000000       0.024
  -0.40000000  0.50000000  0.10000000       0.012
  -0.40000000  0.40000000  0.20000000       0.024
  -0.30000000  0.40000000  0.20000000       0.024
  -0.30000000  0.50000000  0.20000000       0.012
 
 position of ions in fractional coordinates (direct lattice) 
   0.25000000  0.25000000  0.25000000
   0.75000000  0.75000000  0.75000000
   0.50000000  0.50000000  0.50000000
   0.00000000  0.00000000  0.00000000
   0.24646457  0.75353543  0.24646458
   0.75353543  0.75353542  0.24646457
   0.75353543  0.24646457  0.75353542
   0.75353543  0.24646458  0.24646458
   0.24646457  0.75353542  0.75353542
   0.24646457  0.24646458  0.75353543
 
 position of ions in cartesian coordinates  (Angst):
   3.05028540  1.76108296  1.24527371
   9.15085619  5.28324889  3.73582112
   6.10057079  3.52216593  2.49054741
   0.00000000  0.00000000  0.00000000
   4.55386004  4.41515985  1.22766340
   7.64728155  4.41515975  1.22766333
   7.64728155  2.62917200  3.75343142
   6.10057070  1.73617818  1.22766336
   6.10057089  5.30815368  3.75343146
   4.55386004  2.62917211  3.75343149
 


--------------------------------------------------------------------------------------------------------


 k-point  1 :   0.0000 0.0000 0.0000  plane waves:    4285
 k-point  2 :   0.1000 0.0000 0.0000  plane waves:    4342
 k-point  3 :   0.2000 0.0000 0.0000  plane waves:    4330
 k-point  4 :   0.3000 0.0000 0.0000  plane waves:    4320
 k-point  5 :   0.4000 0.0000 0.0000  plane waves:    4332
 k-point  6 :   0.5000 0.0000 0.0000  plane waves:    4338
 k-point  7 :   0.1000 0.1000 0.0000  plane waves:    4344
 k-point  8 :   0.2000 0.1000 0.0000  plane waves:    4349
 k-point  9 :   0.3000 0.1000 0.0000  plane waves:    4327
 k-point 10 :   0.4000 0.1000 0.0000  plane waves:    4327
 k-point 11 :   0.5000 0.1000 0.0000  plane waves:    4333
 k-point 12 :  -0.4000 0.1000 0.0000  plane waves:    4320
 k-point 13 :  -0.3000 0.1000 0.0000  plane waves:    4305
 k-point 14 :  -0.2000 0.1000 0.0000  plane waves:    4325
 k-point 15 :  -0.1000 0.1000 0.0000  plane waves:    4345
 k-point 16 :   0.2000 0.2000 0.0000  plane waves:    4332
 k-point 17 :   0.3000 0.2000 0.0000  plane waves:    4318
 k-point 18 :   0.4000 0.2000 0.0000  plane waves:    4315
 k-point 19 :   0.5000 0.2000 0.0000  plane waves:    4325
 k-point 20 :  -0.4000 0.2000 0.0000  plane waves:    4339
 k-point 21 :  -0.3000 0.2000 0.0000  plane waves:    4336
 k-point 22 :  -0.2000 0.2000 0.0000  plane waves:    4315
 k-point 23 :   0.3000 0.3000 0.0000  plane waves:    4316
 k-point 24 :   0.4000 0.3000 0.0000  plane waves:    4336
 k-point 25 :   0.5000 0.3000 0.0000  plane waves:    4313
 k-point 26 :  -0.4000 0.3000 0.0000  plane waves:    4315
 k-point 27 :  -0.3000 0.3000 0.0000  plane waves:    4321
 k-point 28 :   0.4000 0.4000 0.0000  plane waves:    4308
 k-point 29 :   0.5000 0.4000 0.0000  plane waves:    4307
 k-point 30 :  -0.4000 0.4000 0.0000  plane waves:    4320
 k-point 31 :   0.5000 0.5000 0.0000  plane waves:    4328
 k-point 32 :   0.3000 0.2000 0.1000  plane waves:    4341
 k-point 33 :   0.4000 0.2000 0.1000  plane waves:    4322
 k-point 34 :   0.5000 0.2000 0.1000  plane waves:    4320
 k-point 35 :  -0.4000 0.2000 0.1000  plane waves:    4328
 k-point 36 :   0.4000 0.3000 0.1000  plane waves:    4329
 k-point 37 :   0.5000 0.3000 0.1000  plane waves:    4313
 k-point 38 :  -0.4000 0.3000 0.1000  plane waves:    4325
 k-point 39 :  -0.3000 0.3000 0.1000  plane waves:    4325
 k-point 40 :  -0.2000 0.3000 0.1000  plane waves:    4323
 k-point 41 :   0.5000 0.4000 0.1000  plane waves:    4308
 k-point 42 :  -0.4000 0.4000 0.1000  plane waves:    4321
 k-point 43 :  -0.3000 0.4000 0.1000  plane waves:    4323
 k-point 44 :  -0.4000 0.5000 0.1000  plane waves:    4310
 k-point 45 :  -0.4000 0.4000 0.2000  plane waves:    4302
 k-point 46 :  -0.3000 0.4000 0.2000  plane waves:    4318
 k-point 47 :  -0.3000 0.5000 0.2000  plane waves:    4306

 maximum and minimum number of plane-waves per node :      4349     4285

 maximum number of plane-waves:      4349
 maximum index in each direction: 
   IXMAX=   11   IYMAX=   11   IZMAX=   11
   IXMIN=  -11   IYMIN=  -11   IZMIN=  -11

 NGX is ok and might be reduce to  46
 NGY is ok and might be reduce to  46
 NGZ is ok and might be reduce to  46

 serial   3D FFT for wavefunctions
 parallel 3D FFT for charge:
    minimum data exchange during FFTs selected (reduces bandwidth)


 total amount of memory used by VASP on root node   152835. kBytes
========================================================================

   base      :      30000. kBytes
   nonlr-proj:       5573. kBytes
   fftplans  :       8029. kBytes
   grid      :      28717. kBytes
   one-center:        311. kBytes
   wavefun   :      80205. kBytes
 
     INWAV:  cpu time    0.0000: real time    0.0000
 Broyden mixing: mesh for mixing (old mesh)
   NGX = 23   NGY = 23   NGZ = 23
  (NGX  = 96   NGY  = 96   NGZ  = 96)
  gives a total of  12167 points

 initial charge density was supplied:
 charge density of overlapping atoms calculated
 number of electron      74.0000000 magnetization       6.0000000
 keeping initial charge density in first step


--------------------------------------------------------------------------------------------------------


 Maximum index for non-local projection operator         9213
 Maximum index for augmentation-charges        10143 (set IRDMAX)


--------------------------------------------------------------------------------------------------------


 First call to EWALD:  gamma=   0.326
 Maximum number of real-space cells 3x 3x 3
 Maximum number of reciprocal cells 3x 3x 3

 FEWALD executed in parallel
    FEWALD:  cpu time    0.0010: real time    0.0068


----------------------------------------- Iteration    1(   1)  ---------------------------------------


    POTLOK:  cpu time    0.4409: real time    0.4410
    SETDIJ:  cpu time    0.0310: real time    0.0311
     EDDAV:  cpu time   33.0630: real time   33.1451
 BZINTS: Fermi energy: 18.116904; 74.000000 electrons
         Band energy:  16.777688;  BLOECHL correction: -0.265519
       DOS:  cpu time    0.8509: real time    0.8575
    --------------------------------------------
      LOOP:  cpu time   34.3878: real time   36.4518

 eigenvalue-minimisations  :  9040
 total energy-change (2. order) : 0.8956881E+03  (-0.3814241E+04)
 number of electron      74.0000000 magnetization       6.0000000
 augmentation part       74.0000000 magnetization       6.0000000

 Free energy of the ion-electron system (eV)
  ---------------------------------------------------
  alpha Z        PSCENC =       201.19173122
  Ewald energy   TEWEN  =     -4234.08523527
  -Hartree energ DENC   =     -2306.74052278
  -exchange      EXHF   =         0.00000000
  -V(xc)+E(xc)   XCENC  =       310.52390878
  PAW double counting   =      4714.94968851    -4987.87985249
  entropy T*S    EENTRO =         0.00000000
  eigenvalues    EBANDS =        16.77768765
  atomic energy  EATOM  =      7180.95068065
  Solvation  Ediel_sol  =         0.00000000
  ---------------------------------------------------
  free energy    TOTEN  =       895.68808627 eV

  energy without entropy =      895.68808627  energy(sigma->0) =      895.68808627


--------------------------------------------------------------------------------------------------------




----------------------------------------- Iteration    1(   2)  ---------------------------------------


     EDDAV:  cpu time   33.8878: real time   33.9587
 BZINTS: Fermi energy:  3.380656; 74.000000 electrons
         Band energy:-797.725095;  BLOECHL correction: -0.180136
       DOS:  cpu time    0.0420: real time    0.0414
    --------------------------------------------
      LOOP:  cpu time   33.9758: real time   34.1182

 eigenvalue-minimisations  :  9208
 total energy-change (2. order) :-0.8145028E+03  (-0.7708075E+03)
 number of electron      74.0000000 magnetization       6.0000000
 augmentation part       74.0000000 magnetization       6.0000000

 Free energy of the ion-electron system (eV)
  ---------------------------------------------------
  alpha Z        PSCENC =       201.19173122
  Ewald energy   TEWEN  =     -4234.08523527
  -Hartree energ DENC   =     -2306.74052278
  -exchange      EXHF   =         0.00000000
  -V(xc)+E(xc)   XCENC  =       310.52390878
  PAW double counting   =      4714.94968851    -4987.87985249
  entropy T*S    EENTRO =         0.00000000
  eigenvalues    EBANDS =      -797.72509492
  atomic energy  EATOM  =      7180.95068065
  Solvation  Ediel_sol  =         0.00000000
  ---------------------------------------------------
  free energy    TOTEN  =        81.18530370 eV

  energy without entropy =       81.18530370  energy(sigma->0) =       81.18530370


--------------------------------------------------------------------------------------------------------




----------------------------------------- Iteration    1(   3)  ---------------------------------------


     EDDAV:  cpu time   36.5294: real time   36.5789
 BZINTS: Fermi energy:  1.460013; 74.000000 electrons
         Band energy:-918.762527;  BLOECHL correction:  0.000000
       DOS:  cpu time    0.0240: real time    0.0236
    --------------------------------------------
      LOOP:  cpu time   36.5544: real time   36.6053

 eigenvalue-minimisations  : 10136
 total energy-change (2. order) :-0.1210374E+03  (-0.1186076E+03)
 number of electron      74.0000000 magnetization       6.0000000
 augmentation part       74.0000000 magnetization       6.0000000

 Free energy of the ion-electron system (eV)
  ---------------------------------------------------
  alpha Z        PSCENC =       201.19173122
  Ewald energy   TEWEN  =     -4234.08523527
  -Hartree energ DENC   =     -2306.74052278
  -exchange      EXHF   =         0.00000000
  -V(xc)+E(xc)   XCENC  =       310.52390878
  PAW double counting   =      4714.94968851    -4987.87985249
  entropy T*S    EENTRO =         0.00000000
  eigenvalues    EBANDS =      -918.76252676
  atomic energy  EATOM  =      7180.95068065
  Solvation  Ediel_sol  =         0.00000000
  ---------------------------------------------------
  free energy    TOTEN  =       -39.85212814 eV

  energy without entropy =      -39.85212814  energy(sigma->0) =      -39.85212814


--------------------------------------------------------------------------------------------------------




----------------------------------------- Iteration    1(   4)  ---------------------------------------


     EDDAV:  cpu time   37.4213: real time   37.5025
 BZINTS: Fermi energy:  1.235000; 74.000000 electrons
         Band energy:-923.309768;  BLOECHL correction:  0.000000
       DOS:  cpu time    0.0160: real time    0.0160
    --------------------------------------------
      LOOP:  cpu time   37.4373: real time   38.0503

 eigenvalue-minimisations  : 10432
 total energy-change (2. order) :-0.4547241E+01  (-0.4521715E+01)
 number of electron      74.0000000 magnetization       6.0000000
 augmentation part       74.0000000 magnetization       6.0000000

 Free energy of the ion-electron system (eV)
  ---------------------------------------------------
  alpha Z        PSCENC =       201.19173122
  Ewald energy   TEWEN  =     -4234.08523527
  -Hartree energ DENC   =     -2306.74052278
  -exchange      EXHF   =         0.00000000
  -V(xc)+E(xc)   XCENC  =       310.52390878
  PAW double counting   =      4714.94968851    -4987.87985249
  entropy T*S    EENTRO =         0.00000000
  eigenvalues    EBANDS =      -923.30976813
  atomic energy  EATOM  =      7180.95068065
  Solvation  Ediel_sol  =         0.00000000
  ---------------------------------------------------
  free energy    TOTEN  =       -44.39936952 eV

  energy without entropy =      -44.39936952  energy(sigma->0) =      -44.39936952


--------------------------------------------------------------------------------------------------------




----------------------------------------- Iteration    1(   5)  ---------------------------------------


     EDDAV:  cpu time   45.5631: real time   45.6562
 BZINTS: Fermi energy:  1.234167; 74.000000 electrons
         Band energy:-923.448887;  BLOECHL correction:  0.000000
       DOS:  cpu time    0.0170: real time    0.0169
    CHARGE:  cpu time    1.8867: real time    1.8931
    MIXING:  cpu time    0.0080: real time    0.0082
    --------------------------------------------
      LOOP:  cpu time   47.4768: real time   47.6309

 eigenvalue-minimisations  : 13392
 total energy-change (2. order) :-0.1391185E+00  (-0.1385136E+00)
 number of electron      74.0000004 magnetization       2.0699494
 augmentation part       25.5181172 magnetization       1.1714316

 Broyden mixing:
  rms(total) = 0.20473E+01    rms(broyden)= 0.20471E+01
  rms(prec ) = 0.37361E+01
  weight for this iteration     100.00

 Free energy of the ion-electron system (eV)
  ---------------------------------------------------
  alpha Z        PSCENC =       201.19173122
  Ewald energy   TEWEN  =     -4234.08523527
  -Hartree energ DENC   =     -2306.74052278
  -exchange      EXHF   =         0.00000000
  -V(xc)+E(xc)   XCENC  =       310.52390878
  PAW double counting   =      4714.94968851    -4987.87985249
  entropy T*S    EENTRO =         0.00000000
  eigenvalues    EBANDS =      -923.44888662
  atomic energy  EATOM  =      7180.95068065
  Solvation  Ediel_sol  =         0.00000000
  ---------------------------------------------------
  free energy    TOTEN  =       -44.53848800 eV

  energy without entropy =      -44.53848800  energy(sigma->0) =      -44.53848800


--------------------------------------------------------------------------------------------------------




----------------------------------------- Iteration    1(   6)  ---------------------------------------


    POTLOK:  cpu time    0.4379: real time    0.4404
    SETDIJ:  cpu time    0.0310: real time    0.0305
    EDDIAG:  cpu time    5.8721: real time    5.8769
  RMM-DIIS:  cpu time   25.5531: real time   25.6195
    ORTHCH:  cpu time    0.4519: real time    0.4522
 BZINTS: Fermi energy: -0.865000; 74.000000 electrons
         Band energy:-842.690372;  BLOECHL correction:  0.000000
       DOS:  cpu time    0.0150: real time    0.0154
    CHARGE:  cpu time    1.8857: real time    1.8897
    MIXING:  cpu time    0.0090: real time    0.0085
    --------------------------------------------
      LOOP:  cpu time   34.2558: real time   34.5665

 eigenvalue-minimisations  :  9999
 total energy-change (2. order) : 0.6645080E+01  (-0.3923366E+01)
 number of electron      74.0000001 magnetization       2.0109187
 augmentation part       25.0083773 magnetization       0.9234751

 Broyden mixing:
  rms(total) = 0.86980E+00    rms(broyden)= 0.86909E+00
  rms(prec ) = 0.10726E+01
  weight for this iteration     100.00

 eigenvalues of (default mixing * dielectric matrix)
  average eigenvalue GAMMA=   0.6925
  0.6925

 Free energy of the ion-electron system (eV)
  ---------------------------------------------------
  alpha Z        PSCENC =       201.19173122
  Ewald energy   TEWEN  =     -4234.08523527
  -Hartree energ DENC   =     -2382.92281877
  -exchange      EXHF   =         0.00000000
  -V(xc)+E(xc)   XCENC  =       316.57326529
  PAW double counting   =      4867.69983433    -5144.61049309
  entropy T*S    EENTRO =         0.00000000
  eigenvalues    EBANDS =      -842.69037213
  atomic energy  EATOM  =      7180.95068065
  Solvation  Ediel_sol  =         0.00000000
  ---------------------------------------------------
  free energy    TOTEN  =       -37.89340778 eV

  energy without entropy =      -37.89340778  energy(sigma->0) =      -37.89340778


--------------------------------------------------------------------------------------------------------




----------------------------------------- Iteration    1(   7)  ---------------------------------------


    POTLOK:  cpu time    0.4399: real time    0.4394
    SETDIJ:  cpu time    0.0300: real time    0.0306
    EDDIAG:  cpu time    5.8981: real time    5.9073
  RMM-DIIS:  cpu time   30.1374: real time   30.1769
    ORTHCH:  cpu time    0.4549: real time    0.4546
 BZINTS: Fermi energy: -0.892500; 74.000000 electrons
         Band energy:-850.545212;  BLOECHL correction:  0.000000
       DOS:  cpu time    0.0170: real time    0.0167
    CHARGE:  cpu time    1.9077: real time    1.9091
    MIXING:  cpu time    0.0080: real time    0.0085
    --------------------------------------------
      LOOP:  cpu time   38.8941: real time   42.5940

 eigenvalue-minimisations  : 11866
 total energy-change (2. order) : 0.1933342E+00  (-0.1462558E+00)
 number of electron      74.0000001 magnetization       2.0035817
 augmentation part       25.0906442 magnetization       0.9777856

 Broyden mixing:
  rms(total) = 0.36499E+00    rms(broyden)= 0.36491E+00
  rms(prec ) = 0.55623E+00
  weight for this iteration     100.00

 eigenvalues of (default mixing * dielectric matrix)
  average eigenvalue GAMMA=   0.7645
  0.7645  0.7645

 Free energy of the ion-electron system (eV)
  ---------------------------------------------------
  alpha Z        PSCENC =       201.19173122
  Ewald energy   TEWEN  =     -4234.08523527
  -Hartree energ DENC   =     -2374.11558890
  -exchange      EXHF   =         0.00000000
  -V(xc)+E(xc)   XCENC  =       315.42080954
  PAW double counting   =      4869.55382157    -5146.07108015
  entropy T*S    EENTRO =         0.00000000
  eigenvalues    EBANDS =      -850.54521227
  atomic energy  EATOM  =      7180.95068065
  Solvation  Ediel_sol  =         0.00000000
  ---------------------------------------------------
  free energy    TOTEN  =       -37.70007362 eV

  energy without entropy =      -37.70007362  energy(sigma->0) =      -37.70007362


--------------------------------------------------------------------------------------------------------




----------------------------------------- Iteration    1(   8)  ---------------------------------------


    POTLOK:  cpu time    0.4399: real time    0.4403
    SETDIJ:  cpu time    0.0310: real time    0.0306
    EDDIAG:  cpu time    5.8821: real time    5.8950
  RMM-DIIS:  cpu time   26.2050: real time   25.6878
    ORTHCH:  cpu time    0.4369: real time    0.4375
 BZINTS: Fermi energy: -0.765000; 74.000000 electrons
         Band energy:-852.385877;  BLOECHL correction:  0.000000
       DOS:  cpu time    0.0150: real time    0.0151
    CHARGE:  cpu time    1.7457: real time    1.7473
    MIXING:  cpu time    0.0090: real time    0.0086
    --------------------------------------------
      LOOP:  cpu time   34.7647: real time   34.2660

 eigenvalue-minimisations  : 10631
 total energy-change (2. order) : 0.8707258E-01  (-0.3837738E-01)
 number of electron      74.0000002 magnetization       1.9933135
 augmentation part       25.1112871 magnetization       0.9828928

 Broyden mixing:
  rms(total) = 0.16803E+00    rms(broyden)= 0.16800E+00
  rms(prec ) = 0.31218E+00
  weight for this iteration     100.00

 eigenvalues of (default mixing * dielectric matrix)
  average eigenvalue GAMMA=   0.9939
  1.3747  0.8034  0.8034

 Free energy of the ion-electron system (eV)
  ---------------------------------------------------
  alpha Z        PSCENC =       201.19173122
  Ewald energy   TEWEN  =     -4234.08523527
  -Hartree energ DENC   =     -2372.31800821
  -exchange      EXHF   =         0.00000000
  -V(xc)+E(xc)   XCENC  =       315.28675185
  PAW double counting   =      4879.35360852    -5155.60665236
  entropy T*S    EENTRO =         0.00000000
  eigenvalues    EBANDS =      -852.38587744
  atomic energy  EATOM  =      7180.95068065
  Solvation  Ediel_sol  =         0.00000000
  ---------------------------------------------------
  free energy    TOTEN  =       -37.61300104 eV

  energy without entropy =      -37.61300104  energy(sigma->0) =      -37.61300104


--------------------------------------------------------------------------------------------------------




----------------------------------------- Iteration    1(   9)  ---------------------------------------


    POTLOK:  cpu time    0.4329: real time    0.4336
    SETDIJ:  cpu time    0.0300: real time    0.0295
    EDDIAG:  cpu time    5.1702: real time    5.1740
  RMM-DIIS:  cpu time   23.5444: real time   23.5595
    ORTHCH:  cpu time    0.4399: real time    0.4398
 BZINTS: Fermi energy: -0.705000; 74.000000 electrons
         Band energy:-848.070949;  BLOECHL correction:  0.000000
       DOS:  cpu time    0.0150: real time    0.0151
    CHARGE:  cpu time    1.7557: real time    1.7576
    MIXING:  cpu time    0.0080: real time    0.0088
    --------------------------------------------
      LOOP:  cpu time   31.3972: real time   34.1354

 eigenvalue-minimisations  : 10392
 total energy-change (2. order) : 0.3919284E-01  (-0.1205800E-01)
 number of electron      74.0000002 magnetization       1.9974244
 augmentation part       25.1067482 magnetization       1.0005843

 Broyden mixing:
  rms(total) = 0.57094E-01    rms(broyden)= 0.57084E-01
  rms(prec ) = 0.10365E+00
  weight for this iteration     100.00

 eigenvalues of (default mixing * dielectric matrix)
  average eigenvalue GAMMA=   1.1613
  2.3213  0.8121  0.8121  0.6997

 Free energy of the ion-electron system (eV)
  ---------------------------------------------------
  alpha Z        PSCENC =       201.19173122
  Ewald energy   TEWEN  =     -4234.08523527
  -Hartree energ DENC   =     -2376.75672546
  -exchange      EXHF   =         0.00000000
  -V(xc)+E(xc)   XCENC  =       315.64159763
  PAW double counting   =      4902.35992210    -5178.80483021
  entropy T*S    EENTRO =         0.00000000
  eigenvalues    EBANDS =      -848.07094886
  atomic energy  EATOM  =      7180.95068065
  Solvation  Ediel_sol  =         0.00000000
  ---------------------------------------------------
  free energy    TOTEN  =       -37.57380821 eV

  energy without entropy =      -37.57380821  energy(sigma->0) =      -37.57380821


--------------------------------------------------------------------------------------------------------




----------------------------------------- Iteration    1(  10)  ---------------------------------------


    POTLOK:  cpu time    0.4289: real time    0.4296
    SETDIJ:  cpu time    0.0310: real time    0.0306
    EDDIAG:  cpu time    5.8631: real time    5.8670
  RMM-DIIS:  cpu time   31.0963: real time   31.1164
    ORTHCH:  cpu time    0.4329: real time    0.4334
 BZINTS: Fermi energy: -0.698333; 74.000000 electrons
         Band energy:-846.298814;  BLOECHL correction:  0.000000
       DOS:  cpu time    0.0150: real time    0.0151
    CHARGE:  cpu time    1.8027: real time    1.8037
    MIXING:  cpu time    0.0100: real time    0.0103
    --------------------------------------------
      LOOP:  cpu time   39.6810: real time   41.8410

 eigenvalue-minimisations  : 11802
 total energy-change (2. order) : 0.5770038E-03  (-0.2100838E-02)
 number of electron      74.0000001 magnetization       2.0022591
 augmentation part       25.1013671 magnetization       0.9972445

 Broyden mixing:
  rms(total) = 0.20855E-01    rms(broyden)= 0.20843E-01
  rms(prec ) = 0.41647E-01
  weight for this iteration     100.00

 eigenvalues of (default mixing * dielectric matrix)
  average eigenvalue GAMMA=   1.1375
  2.3889  0.9385  0.8371  0.8371  0.6862

 Free energy of the ion-electron system (eV)
  ---------------------------------------------------
  alpha Z        PSCENC =       201.19173122
  Ewald energy   TEWEN  =     -4234.08523527
  -Hartree energ DENC   =     -2378.46654839
  -exchange      EXHF   =         0.00000000
  -V(xc)+E(xc)   XCENC  =       315.76131933
  PAW double counting   =      4905.26703647    -5181.89340105
  entropy T*S    EENTRO =         0.00000000
  eigenvalues    EBANDS =      -846.29881416
  atomic energy  EATOM  =      7180.95068065
  Solvation  Ediel_sol  =         0.00000000
  ---------------------------------------------------
  free energy    TOTEN  =       -37.57323120 eV

  energy without entropy =      -37.57323120  energy(sigma->0) =      -37.57323120


--------------------------------------------------------------------------------------------------------




----------------------------------------- Iteration    1(  11)  ---------------------------------------


    POTLOK:  cpu time    0.4299: real time    0.4297
    SETDIJ:  cpu time    0.0300: real time    0.0308
    EDDIAG:  cpu time    5.8261: real time    5.8291
  RMM-DIIS:  cpu time   29.2446: real time   29.2637
    ORTHCH:  cpu time    0.4329: real time    0.4333
 BZINTS: Fermi energy: -0.665000; 74.000000 electrons
         Band energy:-845.496489;  BLOECHL correction:  0.000000
       DOS:  cpu time    0.0150: real time    0.0151
    CHARGE:  cpu time    1.8217: real time    1.8231
    MIXING:  cpu time    0.0110: real time    0.0108
    --------------------------------------------
      LOOP:  cpu time   37.8123: real time   40.0095

 eigenvalue-minimisations  : 11191
 total energy-change (2. order) : 0.3200934E-03  (-0.4077244E-03)
 number of electron      74.0000001 magnetization       2.0012742
 augmentation part       25.0977894 magnetization       0.9951489

 Broyden mixing:
  rms(total) = 0.13570E-01    rms(broyden)= 0.13568E-01
  rms(prec ) = 0.21565E-01
  weight for this iteration     100.00

 eigenvalues of (default mixing * dielectric matrix)
  average eigenvalue GAMMA=   1.1774
  2.3992  1.6304  0.8034  0.8034  0.7632  0.6645

 Free energy of the ion-electron system (eV)
  ---------------------------------------------------
  alpha Z        PSCENC =       201.19173122
  Ewald energy   TEWEN  =     -4234.08523527
  -Hartree energ DENC   =     -2379.15733906
  -exchange      EXHF   =         0.00000000
  -V(xc)+E(xc)   XCENC  =       315.78090966
  PAW double counting   =      4903.02663217    -5179.78380194
  entropy T*S    EENTRO =         0.00000000
  eigenvalues    EBANDS =      -845.49648854
  atomic energy  EATOM  =      7180.95068065
  Solvation  Ediel_sol  =         0.00000000
  ---------------------------------------------------
  free energy    TOTEN  =       -37.57291111 eV

  energy without entropy =      -37.57291111  energy(sigma->0) =      -37.57291111


--------------------------------------------------------------------------------------------------------




----------------------------------------- Iteration    1(  12)  ---------------------------------------


    POTLOK:  cpu time    0.4309: real time    0.4311
    SETDIJ:  cpu time    0.0310: real time    0.0310
    EDDIAG:  cpu time    5.7841: real time    5.7880
  RMM-DIIS:  cpu time   28.9766: real time   28.9961
    ORTHCH:  cpu time    0.4339: real time    0.4337
 BZINTS: Fermi energy: -0.651667; 74.000000 electrons
         Band energy:-845.308164;  BLOECHL correction:  0.000000
       DOS:  cpu time    0.0150: real time    0.0151
    CHARGE:  cpu time    1.8127: real time    1.8141
    MIXING:  cpu time    0.0110: real time    0.0108
    --------------------------------------------
      LOOP:  cpu time   37.4973: real time   37.5237

 eigenvalue-minimisations  : 11064
 total energy-change (2. order) :-0.1312849E-04  (-0.8252427E-04)
 number of electron      74.0000001 magnetization       2.0001167
 augmentation part       25.0976949 magnetization       0.9949697

 Broyden mixing:
  rms(total) = 0.48638E-02    rms(broyden)= 0.48628E-02
  rms(prec ) = 0.88031E-02
  weight for this iteration     100.00

 eigenvalues of (default mixing * dielectric matrix)
  average eigenvalue GAMMA=   1.2792
  2.7196  2.2884  0.8351  0.8351  0.8671  0.7591  0.6503

 Free energy of the ion-electron system (eV)
  ---------------------------------------------------
  alpha Z        PSCENC =       201.19173122
  Ewald energy   TEWEN  =     -4234.08523527
  -Hartree energ DENC   =     -2379.31307038
  -exchange      EXHF   =         0.00000000
  -V(xc)+E(xc)   XCENC  =       315.79047695
  PAW double counting   =      4901.74232861    -5178.54167211
  entropy T*S    EENTRO =         0.00000000
  eigenvalues    EBANDS =      -845.30816390
  atomic energy  EATOM  =      7180.95068065
  Solvation  Ediel_sol  =         0.00000000
  ---------------------------------------------------
  free energy    TOTEN  =       -37.57292424 eV

  energy without entropy =      -37.57292424  energy(sigma->0) =      -37.57292424


--------------------------------------------------------------------------------------------------------




----------------------------------------- Iteration    1(  13)  ---------------------------------------


    POTLOK:  cpu time    0.4339: real time    0.4342
    SETDIJ:  cpu time    0.0310: real time    0.0311
    EDDIAG:  cpu time    5.7851: real time    5.8007
  RMM-DIIS:  cpu time   30.2204: real time   30.2925
    ORTHCH:  cpu time    0.4319: real time    0.4326
 BZINTS: Fermi energy: -0.652500; 74.000000 electrons
         Band energy:-845.464133;  BLOECHL correction:  0.000000
       DOS:  cpu time    0.0160: real time    0.0159
    CHARGE:  cpu time    1.8197: real time    1.8266
    MIXING:  cpu time    0.0110: real time    0.0107
    --------------------------------------------
      LOOP:  cpu time   38.7491: real time   41.6104

 eigenvalue-minimisations  : 11399
 total energy-change (2. order) : 0.1576619E-04  (-0.2022096E-04)
 number of electron      74.0000001 magnetization       1.9998384
 augmentation part       25.0986659 magnetization       0.9948611

 Broyden mixing:
  rms(total) = 0.25728E-02    rms(broyden)= 0.25711E-02
  rms(prec ) = 0.44625E-02
  weight for this iteration     100.00

 eigenvalues of (default mixing * dielectric matrix)
  average eigenvalue GAMMA=   1.2788
  2.8943  2.3293  1.1037  0.8242  0.8242  0.9035  0.7149  0.6366

 Free energy of the ion-electron system (eV)
  ---------------------------------------------------
  alpha Z        PSCENC =       201.19173122
  Ewald energy   TEWEN  =     -4234.08523527
  -Hartree energ DENC   =     -2379.15876536
  -exchange      EXHF   =         0.00000000
  -V(xc)+E(xc)   XCENC  =       315.78076946
  PAW double counting   =      4901.13510155    -5177.92305787
  entropy T*S    EENTRO =         0.00000000
  eigenvalues    EBANDS =      -845.46413284
  atomic energy  EATOM  =      7180.95068065
  Solvation  Ediel_sol  =         0.00000000
  ---------------------------------------------------
  free energy    TOTEN  =       -37.57290847 eV

  energy without entropy =      -37.57290847  energy(sigma->0) =      -37.57290847


--------------------------------------------------------------------------------------------------------




----------------------------------------- Iteration    1(  14)  ---------------------------------------


    POTLOK:  cpu time    0.4329: real time    0.4324
    SETDIJ:  cpu time    0.0300: real time    0.0308
    EDDIAG:  cpu time    5.7791: real time    5.7957
  RMM-DIIS:  cpu time   26.6419: real time   26.7059
    ORTHCH:  cpu time    0.4329: real time    0.4332
 BZINTS: Fermi energy: -0.652500; 74.000000 electrons
         Band energy:-845.568925;  BLOECHL correction:  0.000000
       DOS:  cpu time    0.0160: real time    0.0159
    --------------------------------------------
      LOOP:  cpu time   33.3359: real time   35.8422

 eigenvalue-minimisations  :  9959
 total energy-change (2. order) : 0.8427110E-05  (-0.6624354E-05)
 number of electron      74.0000001 magnetization       1.9998384
 augmentation part       25.0986659 magnetization       0.9948611

 Free energy of the ion-electron system (eV)
  ---------------------------------------------------
  alpha Z        PSCENC =       201.19173122
  Ewald energy   TEWEN  =     -4234.08523527
  -Hartree energ DENC   =     -2379.05229985
  -exchange      EXHF   =         0.00000000
  -V(xc)+E(xc)   XCENC  =       315.77443329
  PAW double counting   =      4900.55132643    -5177.33461182
  entropy T*S    EENTRO =         0.00000000
  eigenvalues    EBANDS =      -845.56892469
  atomic energy  EATOM  =      7180.95068065
  Solvation  Ediel_sol  =         0.00000000
  ---------------------------------------------------
  free energy    TOTEN  =       -37.57290005 eV

  energy without entropy =      -37.57290005  energy(sigma->0) =      -37.57290005


--------------------------------------------------------------------------------------------------------




 average (electrostatic) potential at core
  the test charge radii are     0.9254  1.2098  0.7167
  (the norm of the test charge is              1.0000)
       1 -57.1862       2 -57.1862       3 -54.6910       4 -51.8604       5 -78.8046
       6 -78.8046       7 -78.8046       8 -78.8046       9 -78.8046      10 -78.8046
 
 
 
 E-fermi :  -0.6525     XC(G=0):  -8.3504     alpha+bet : -6.8477


 spin component 1

 k-point     1 :       0.0000    0.0000    0.0000
  band No.  band energies     occupation 
      1     -23.5504      1.00000
      2     -23.5504      1.00000
      3     -23.5504      1.00000
      4     -23.5478      1.00000
      5     -23.5478      1.00000
      6     -23.5478      1.00000
      7     -22.6102      1.00000
      8     -22.4208      1.00000
      9     -22.4208      1.00000
     10     -22.4208      1.00000
     11     -22.2787      1.00000
     12     -22.2787      1.00000
     13     -20.9397      1.00000
     14     -20.9397      1.00000
     15     -20.9397      1.00000
     16      -6.6681      1.00000
     17      -6.6681      1.00000
     18      -6.4907      1.00000
     19      -5.5704      1.00000
     20      -5.5704      1.00000
     21      -5.5704      1.00000
     22      -4.7905      1.00000
     23      -4.7905      1.00000
     24      -4.7905      1.00000
     25      -3.3107      1.00000
     26      -3.3107      1.00000
     27      -3.3107      1.00000
     28      -3.2857      1.00000
     29      -3.2857      1.00000
     30      -3.2857      1.00000
     31      -2.8657      1.00000
     32      -2.8657      1.00000
     33      -2.8656      1.00000
     34      -2.6144      1.00000
     35      -2.6144      1.00000
     36      -2.6144      1.00000
     37      -0.6601      1.00000
     38      -0.6601      1.00000
     39       2.0723      0.00000
     40       6.2746      0.00000
     41       6.4055      0.00000
     42       6.5433      0.00000
     43       8.1295      0.00000
     44       8.8133      0.00000
     45       8.8133      0.00000
     46       8.8141      0.00000
     47       8.8395      0.00000
     48       8.8427      0.00000

 k-point     2 :       0.1000    0.0000    0.0000
  band No.  band energies     occupation 
      1     -23.5508      1.00000
      2     -23.5505      1.00000
      3     -23.5505      1.00000
      4     -23.5484      1.00000
      5     -23.5479      1.00000
      6     -23.5479      1.00000
      7     -22.6131      1.00000
      8     -22.4252      1.00000
      9     -22.4252      1.00000
     10     -22.4149      1.00000
     11     -22.2740      1.00000
     12     -22.2740      1.00000
     13     -20.9426      1.00000
     14     -20.9404      1.00000
     15     -20.9404      1.00000
     16      -6.6738      1.00000
     17      -6.6738      1.00000
     18      -6.4619      1.00000
     19      -5.5650      1.00000
     20      -5.5579      1.00000
     21      -5.5579      1.00000
     22      -4.8117      1.00000
     23      -4.7656      1.00000
     24      -4.7656      1.00000
     25      -3.3819      1.00000
     26      -3.3466      1.00000
     27      -3.3466      1.00000
     28      -3.2995      1.00000
     29      -3.2995      1.00000
     30      -3.2762      1.00000
     31      -2.8845      1.00000
     32      -2.8845      1.00000
     33      -2.8760      1.00000
     34      -2.5935      1.00000
     35      -2.5807      1.00000
     36      -2.5807      1.00000
     37      -0.6677      1.00000
     38      -0.6677      1.00000
     39       2.1728      0.00000
     40       6.2600      0.00000
     41       6.3474      0.00000
     42       6.5319      0.00000
     43       8.0410      0.00000
     44       8.2822      0.00000
     45       8.5278      0.00000
     46       8.5410      0.00000
     47       9.1250      0.00000
     48       9.1877      0.00000

 k-point     3 :       0.2000    0.0000    0.0000
  band No.  band energies     occupation 
      1     -23.5517      1.00000
      2     -23.5505      1.00000
      3     -23.5505      1.00000
      4     -23.5498      1.00000
      5     -23.5484      1.00000
      6     -23.5484      1.00000
      7     -22.6198      1.00000
      8     -22.4350      1.00000
      9     -22.4350      1.00000
     10     -22.3992      1.00000
     11     -22.2620      1.00000
     12     -22.2620      1.00000
     13     -20.9501      1.00000
     14     -20.9420      1.00000
     15     -20.9420      1.00000
     16      -6.6885      1.00000
     17      -6.6885      1.00000
     18      -6.3814      1.00000
     19      -5.5488      1.00000
     20      -5.5236      1.00000
     21      -5.5236      1.00000
     22      -4.8725      1.00000
     23      -4.6987      1.00000
     24      -4.6987      1.00000
     25      -3.5519      1.00000
     26      -3.4639      1.00000
     27      -3.4639      1.00000
     28      -3.2953      1.00000
     29      -3.2953      1.00000
     30      -3.2485      1.00000
     31      -2.9387      1.00000
     32      -2.9387      1.00000
     33      -2.9058      1.00000
     34      -2.5538      1.00000
     35      -2.5088      1.00000
     36      -2.5088      1.00000
     37      -0.6870      1.00000
     38      -0.6870      1.00000
     39       2.4569      0.00000
     40       6.0224      0.00000
     41       6.3047      0.00000
     42       6.4837      0.00000
     43       6.5692      0.00000
     44       8.0720      0.00000
     45       8.3246      0.00000
     46       8.3331      0.00000
     47       8.9655      0.00000
     48       9.1922      0.00000

 k-point     4 :       0.3000    0.0000    0.0000
  band No.  band energies     occupation 
      1     -23.5530      1.00000
      2     -23.5515      1.00000
      3     -23.5506      1.00000
      4     -23.5506      1.00000
      5     -23.5490      1.00000
      6     -23.5490      1.00000
      7     -22.6269      1.00000
      8     -22.4455      1.00000
      9     -22.4455      1.00000
     10     -22.3814      1.00000
     11     -22.2487      1.00000
     12     -22.2487      1.00000
     13     -20.9594      1.00000
     14     -20.9441      1.00000
     15     -20.9441      1.00000
     16      -6.7060      1.00000
     17      -6.7060      1.00000
     18      -6.2691      1.00000
     19      -5.5226      1.00000
     20      -5.4773      1.00000
     21      -5.4773      1.00000
     22      -4.9637      1.00000
     23      -4.6123      1.00000
     24      -4.6123      1.00000
     25      -3.7433      1.00000
     26      -3.5949      1.00000
     27      -3.5948      1.00000
     28      -3.2802      1.00000
     29      -3.2802      1.00000
     30      -3.2057      1.00000
     31      -3.0194      1.00000
     32      -3.0194      1.00000
     33      -2.9513      1.00000
     34      -2.5213      1.00000
     35      -2.4393      1.00000
     36      -2.4393      1.00000
     37      -0.7095      1.00000
     38      -0.7095      1.00000
     39       2.8800      0.00000
     40       5.5226      0.00000
     41       6.3549      0.00000
     42       7.8707      0.00000
     43       8.1844      0.00000
     44       8.2023      0.00000
     45       8.3416      0.00000
     46       8.8829      0.00000
     47       8.8957      0.00000
     48       9.8405      0.00000

 k-point     5 :       0.4000    0.0000    0.0000
  band No.  band energies     occupation 
      1     -23.5542      1.00000
      2     -23.5528      1.00000
      3     -23.5505      1.00000
      4     -23.5505      1.00000
      5     -23.5496      1.00000
      6     -23.5496      1.00000
      7     -22.6319      1.00000
      8     -22.4532      1.00000
      9     -22.4532      1.00000
     10     -22.3675      1.00000
     11     -22.2389      1.00000
     12     -22.2389      1.00000
     13     -20.9671      1.00000
     14     -20.9458      1.00000
     15     -20.9458      1.00000
     16      -6.7198      1.00000
     17      -6.7198      1.00000
     18      -6.1636      1.00000
     19      -5.4899      1.00000
     20      -5.4364      1.00000
     21      -5.4364      1.00000
     22      -5.0614      1.00000
     23      -4.5383      1.00000
     24      -4.5383      1.00000
     25      -3.8892      1.00000
     26      -3.6945      1.00000
     27      -3.6945      1.00000
     28      -3.2485      1.00000
     29      -3.2485      1.00000
     30      -3.1539      1.00000
     31      -3.1097      1.00000
     32      -3.1097      1.00000
     33      -3.0053      1.00000
     34      -2.5025      1.00000
     35      -2.3927      1.00000
     36      -2.3927      1.00000
     37      -0.7265      1.00000
     38      -0.7265      1.00000
     39       3.3690      0.00000
     40       4.9503      0.00000
     41       6.3577      0.00000
     42       6.5087      0.00000
     43       8.1463      0.00000
     44       8.1577      0.00000
     45       8.4214      0.00000
     46       8.6718      0.00000
     47       8.6847      0.00000
     48       9.7665      0.00000

 k-point     6 :       0.5000    0.0000    0.0000
  band No.  band energies     occupation 
      1     -23.5548      1.00000
      2     -23.5532      1.00000
      3     -23.5502      1.00000
      4     -23.5502      1.00000
      5     -23.5501      1.00000
      6     -23.5501      1.00000
      7     -22.6335      1.00000
      8     -22.4560      1.00000
      9     -22.4560      1.00000
     10     -22.3625      1.00000
     11     -22.2355      1.00000
     12     -22.2355      1.00000
     13     -20.9701      1.00000
     14     -20.9464      1.00000
     15     -20.9464      1.00000
[...]
     31      -3.1113      1.00000
     32      -2.9704      1.00000
     33      -2.8600      1.00000
     34      -2.1420      1.00000
     35      -2.0130      1.00000
     36      -1.9221      1.00000
     37       0.0834      0.00000
     38       0.3308      0.00000
     39       4.4398      0.00000
     40       5.2249      0.00000
     41       5.4337      0.00000
     42       6.4440      0.00000
     43       6.4510      0.00000
     44       6.8407      0.00000
     45       7.8852      0.00000
     46       8.6782      0.00000
     47       8.9106      0.00000
     48       9.2324      0.00000

 k-point    44 :      -0.4000    0.5000    0.1000
  band No.  band energies     occupation 
      1     -23.5589      1.00000
      2     -23.5553      1.00000
      3     -23.5542      1.00000
      4     -23.5487      1.00000
      5     -23.5480      1.00000
      6     -23.5478      1.00000
      7     -22.2612      1.00000
      8     -22.1787      1.00000
      9     -22.1716      1.00000
     10     -22.1315      1.00000
     11     -22.0840      1.00000
     12     -21.9768      1.00000
     13     -20.8979      1.00000
     14     -20.8919      1.00000
     15     -20.8918      1.00000
     16      -6.1876      1.00000
     17      -5.8609      1.00000
     18      -5.6548      1.00000
     19      -5.3488      1.00000
     20      -5.0693      1.00000
     21      -5.0292      1.00000
     22      -4.2473      1.00000
     23      -4.2247      1.00000
     24      -4.0858      1.00000
     25      -3.6978      1.00000
     26      -3.4905      1.00000
     27      -3.4597      1.00000
     28      -3.3378      1.00000
     29      -3.2562      1.00000
     30      -3.1498      1.00000
     31      -3.1351      1.00000
     32      -3.1269      1.00000
     33      -2.7559      1.00000
     34      -2.2655      1.00000
     35      -1.9236      1.00000
     36      -1.8919      1.00000
     37      -0.0340      0.00000
     38       0.3728      0.00000
     39       4.5276      0.00000
     40       4.9562      0.00000
     41       5.9264      0.00000
     42       6.4480      0.00000
     43       6.4606      0.00000
     44       6.7656      0.00000
     45       7.5057      0.00000
     46       7.9268      0.00000
     47       8.9167      0.00000
     48      10.1265      0.00000

 k-point    45 :      -0.4000    0.4000    0.2000
  band No.  band energies     occupation 
      1     -23.5572      1.00000
      2     -23.5558      1.00000
      3     -23.5524      1.00000
      4     -23.5506      1.00000
      5     -23.5482      1.00000
      6     -23.5480      1.00000
      7     -22.3155      1.00000
      8     -22.1882      1.00000
      9     -22.1735      1.00000
     10     -22.1054      1.00000
     11     -22.0448      1.00000
     12     -21.9619      1.00000
     13     -20.9109      1.00000
     14     -20.8953      1.00000
     15     -20.8918      1.00000
     16      -6.1014      1.00000
     17      -5.8936      1.00000
     18      -5.6779      1.00000
     19      -5.2689      1.00000
     20      -5.1610      1.00000
     21      -5.0621      1.00000
     22      -4.3443      1.00000
     23      -4.2095      1.00000
     24      -4.1051      1.00000
     25      -3.6157      1.00000
     26      -3.5025      1.00000
     27      -3.4500      1.00000
     28      -3.2956      1.00000
     29      -3.2759      1.00000
     30      -3.1795      1.00000
     31      -3.1677      1.00000
     32      -2.9799      1.00000
     33      -2.8427      1.00000
     34      -2.1385      1.00000
     35      -2.0343      1.00000
     36      -1.9223      1.00000
     37       0.0898      0.00000
     38       0.3357      0.00000
     39       4.2157      0.00000
     40       5.4200      0.00000
     41       5.5485      0.00000
     42       6.4450      0.00000
     43       6.4513      0.00000
     44       6.7188      0.00000
     45       8.2617      0.00000
     46       8.3295      0.00000
     47       8.9101      0.00000
     48       9.1552      0.00000

 k-point    46 :      -0.3000    0.4000    0.2000
  band No.  band energies     occupation 
      1     -23.5574      1.00000
      2     -23.5562      1.00000
      3     -23.5515      1.00000
      4     -23.5515      1.00000
      5     -23.5480      1.00000
      6     -23.5480      1.00000
      7     -22.3108      1.00000
      8     -22.1811      1.00000
      9     -22.1779      1.00000
     10     -22.0988      1.00000
     11     -22.0619      1.00000
     12     -21.9595      1.00000
     13     -20.9112      1.00000
     14     -20.8933      1.00000
     15     -20.8926      1.00000
     16      -6.1068      1.00000
     17      -5.9004      1.00000
     18      -5.6647      1.00000
     19      -5.2176      1.00000
     20      -5.2138      1.00000
     21      -5.0455      1.00000
     22      -4.3260      1.00000
     23      -4.1592      1.00000
     24      -4.1386      1.00000
     25      -3.5719      1.00000
     26      -3.5127      1.00000
     27      -3.4103      1.00000
     28      -3.4054      1.00000
     29      -3.2714      1.00000
     30      -3.2297      1.00000
     31      -3.1898      1.00000
     32      -2.9099      1.00000
     33      -2.9072      1.00000
     34      -2.0799      1.00000
     35      -2.0735      1.00000
     36      -1.9072      1.00000
     37       0.0786      0.00000
     38       0.3285      0.00000
     39       4.4761      0.00000
     40       5.2133      0.00000
     41       5.4900      0.00000
     42       6.5901      0.00000
     43       8.0410      0.00000
     44       8.2435      0.00000
     45       8.6838      0.00000
     46       8.8255      0.00000
     47      10.3869      0.00000
     48      10.5011      0.00000

 k-point    47 :      -0.3000    0.5000    0.2000
  band No.  band energies     occupation 
      1     -23.5580      1.00000
      2     -23.5562      1.00000
      3     -23.5525      1.00000
      4     -23.5504      1.00000
      5     -23.5480      1.00000
      6     -23.5478      1.00000
      7     -22.2966      1.00000
      8     -22.1765      1.00000
      9     -22.1737      1.00000
     10     -22.1039      1.00000
     11     -22.0806      1.00000
     12     -21.9629      1.00000
     13     -20.9081      1.00000
     14     -20.8919      1.00000
     15     -20.8918      1.00000
     16      -6.1340      1.00000
     17      -5.8920      1.00000
     18      -5.6561      1.00000
     19      -5.2710      1.00000
     20      -5.1653      1.00000
     21      -5.0292      1.00000
     22      -4.2638      1.00000
     23      -4.1884      1.00000
     24      -4.1361      1.00000
     25      -3.5954      1.00000
     26      -3.5170      1.00000
     27      -3.3922      1.00000
     28      -3.3528      1.00000
     29      -3.2776      1.00000
     30      -3.2562      1.00000
     31      -3.2427      1.00000
     32      -2.9775      1.00000
     33      -2.8444      1.00000
     34      -2.1389      1.00000
     35      -2.0123      1.00000
     36      -1.8919      1.00000
     37       0.0404      0.00000
     38       0.3385      0.00000
     39       4.5973      0.00000
     40       5.1632      0.00000
     41       5.4977      0.00000
     42       6.4498      0.00000
     43       6.4563      0.00000
     44       6.4754      0.00000
     45       8.2889      0.00000
     46       8.2944      0.00000
     47       8.9351      0.00000
     48       9.1931      0.00000


--------------------------------------------------------------------------------------------------------


 soft charge-density along one line, spin component           1
         0         1         2         3         4         5         6         7         8         9
 total charge-density along one line
 
 soft charge-density along one line, spin component           2
         0         1         2         3         4         5         6         7         8         9
 total charge-density along one line
 
 pseudopotential strength for first ion, spin component:           1
-26.421   0.000   0.000  15.593   0.000   0.000   0.000   0.000
  0.000 -26.421   0.000   0.000  15.593   0.000   0.000   0.000
  0.000   0.000 -26.421   0.000   0.000  15.593   0.000   0.000
 15.593   0.000   0.000  -4.511   0.000   0.000   0.000   0.000
  0.000  15.593   0.000   0.000  -4.511   0.000   0.000   0.000
  0.000   0.000  15.593   0.000   0.000  -4.511   0.000   0.000
  0.000   0.000   0.000   0.000   0.000   0.000   1.429  -0.008
  0.000   0.000   0.000   0.000   0.000   0.000  -0.008  -0.016
 pseudopotential strength for first ion, spin component:           2
-26.421   0.000   0.000  15.593   0.000   0.000   0.000   0.000
  0.000 -26.421   0.000   0.000  15.593   0.000   0.000   0.000
  0.000   0.000 -26.421   0.000   0.000  15.593   0.000   0.000
 15.593   0.000   0.000  -4.512   0.000   0.000   0.000   0.000
  0.000  15.593   0.000   0.000  -4.512   0.000   0.000   0.000
  0.000   0.000  15.593   0.000   0.000  -4.512   0.000   0.000
  0.000   0.000   0.000   0.000   0.000   0.000   1.429  -0.008
  0.000   0.000   0.000   0.000   0.000   0.000  -0.008  -0.016
 total augmentation occupancy for first ion, spin component:           1
  1.994   0.000   0.000  -0.005   0.000   0.000   0.000   0.000
  0.000   1.994   0.000   0.000  -0.005   0.000   0.000   0.000
  0.000   0.000   1.994   0.000   0.000  -0.005   0.000   0.000
 -0.005   0.000   0.000   0.006   0.000   0.000   0.000   0.000
  0.000  -0.005   0.000   0.000   0.006   0.000   0.000   0.000
  0.000   0.000  -0.005   0.000   0.000   0.006   0.000   0.000
  0.000   0.000   0.000   0.000   0.000   0.000   0.113   0.036
  0.000   0.000   0.000   0.000   0.000   0.000   0.036   0.011
 total augmentation occupancy for first ion, spin component:           2
  0.000   0.000   0.000   0.000   0.000   0.000   0.000   0.000
  0.000   0.000   0.000   0.000   0.000   0.000   0.000   0.000
  0.000   0.000   0.000   0.000   0.000   0.000   0.000   0.000
  0.000   0.000   0.000   0.000   0.000   0.000   0.000   0.000
  0.000   0.000   0.000   0.000   0.000   0.000   0.000   0.000
  0.000   0.000   0.000   0.000   0.000   0.000   0.000   0.000
  0.000   0.000   0.000   0.000   0.000   0.000  -0.002  -0.001
  0.000   0.000   0.000   0.000   0.000   0.000  -0.001   0.000


------------------------ aborting loop because EDIFF is reached ----------------------------------------


 


 total charge     
 
# of ion     s       p       d       tot
----------------------------------------
  1        0.011   5.952   0.000   5.963
  2        0.011   5.952   0.000   5.963
  3        0.048   6.007   0.000   6.055
  4        0.421   0.388   8.461   9.270
  5        1.737   4.313   0.000   6.051
  6        1.738   4.306   0.000   6.044
  7        1.737   4.313   0.000   6.051
  8        1.737   4.313   0.000   6.050
  9        1.737   4.313   0.000   6.050
 10        1.738   4.306   0.000   6.044
------------------------------------------------
tot       10.916  44.164   8.461  63.541
 


 magnetization (x)
 
# of ion     s       p       d       tot
----------------------------------------
  1        0.000   0.000   0.000   0.000
  2        0.000   0.000   0.000   0.000
  3        0.005   0.007   0.000   0.012
  4       -0.008  -0.008   1.073   1.057
  5        0.004   0.142   0.000   0.146
  6        0.004   0.134   0.000   0.138
  7        0.004   0.142   0.000   0.146
  8        0.004   0.139   0.000   0.143
  9        0.004   0.139   0.000   0.143
 10        0.004   0.134   0.000   0.138
------------------------------------------------
tot        0.022   0.829   1.073   1.924
 
    CHARGE:  cpu time    1.8447: real time    1.8465
    FORLOC:  cpu time    0.0300: real time    0.0301
    FORNL :  cpu time   10.3004: real time   10.3312
    STRESS:  cpu time   30.5973: real time   30.6710
    FORCOR:  cpu time    0.4239: real time    0.4299
    FORHAR:  cpu time    0.0770: real time    0.0771
    MIXING:  cpu time    0.0090: real time    0.0095
    OFIELD:  cpu time    0.0000: real time    0.0000

  FORCE on cell =-STRESS in cart. coord.  units (eV):
  Direction    XX          YY          ZZ          XY          YZ          ZX
  --------------------------------------------------------------------------------------
  Alpha Z   201.19173   201.19173   201.19173
  Ewald   -1411.36429 -1411.36430 -1411.36429     0.00001    -0.00001     0.00001
  Hartree   793.04847   793.04847   793.04847     0.00001     0.00000     0.00001
  E(xc)    -403.96795  -403.96805  -403.96807     0.00009     0.00003     0.00006
  Local    -440.63531  -440.63553  -440.63558     0.00015     0.00008     0.00011
  n-local  -337.72521  -337.97444  -338.04275    -0.02312    -0.01363    -0.26440
  augment   327.34751   327.34773   327.34778    -0.00019    -0.00008    -0.00013
  Kinetic  1271.09853  1272.66117  1273.20186     0.41362    -0.03189     1.46848
  Fock        0.00000     0.00000     0.00000     0.00000     0.00000     0.00000
  -------------------------------------------------------------------------------------
  Total       0.02647     0.02647     0.02647     0.00000     0.00000     0.00000
  in kB       0.26414     0.26414     0.26414     0.00000     0.00000     0.00000
  external pressure =        0.26 kB  Pullay stress =        0.00 kB


 VOLUME and BASIS-vectors are now :
 -----------------------------------------------------------------------------
  energy-cutoff  :      520.00
  volume of cell :      160.54
      direct lattice vectors                 reciprocal lattice vectors
     6.100570579 -0.000000163 -0.000000115     0.163919090 -0.094638739 -0.066919694
     3.050285506  5.283249057 -0.000000058     0.000000004  0.189277464 -0.066919689
     3.050285506  1.761082965  4.981094994     0.000000004  0.000000000  0.200759068

  length of vectors
     6.100570579  6.100570650  6.100570647     0.200759070  0.200759068  0.200759068


 FORCES acting on ions
    electron-ion (+dipol)            ewald-force                    non-local-force                 convergence-correction
 -----------------------------------------------------------------------------------------------
   -.131E-05 -.884E-06 -.834E-06   0.326E-05 -.114E-05 -.624E-06   -.635E-21 0.953E-21 0.381E-20   0.386E-06 0.301E-06 0.208E-06
   0.131E-05 0.884E-06 0.834E-06   -.326E-05 0.114E-05 0.624E-06   -.106E-20 -.159E-21 -.371E-20   -.386E-06 -.301E-06 -.208E-06
   -.596E-12 -.218E-11 -.130E-11   0.711E-13 0.284E-13 0.426E-13   -.159E-21 -.159E-21 0.000E+00   -.734E-13 -.126E-13 -.243E-13
   -.373E-13 -.316E-13 -.334E-14   -.142E-12 -.284E-13 0.426E-13   0.159E-21 0.662E-23 0.000E+00   0.128E-13 0.189E-13 0.515E-14
   -.562E+02 0.324E+02 -.459E+02   0.645E+02 -.373E+02 0.527E+02   -.837E+01 0.483E+01 -.683E+01   -.211E-02 0.122E-02 -.172E-02
   0.562E+02 0.324E+02 -.459E+02   -.645E+02 -.373E+02 0.527E+02   0.837E+01 0.483E+01 -.683E+01   0.211E-02 0.122E-02 -.172E-02
   0.562E+02 -.324E+02 0.459E+02   -.645E+02 0.373E+02 -.527E+02   0.837E+01 -.483E+01 0.683E+01   0.211E-02 -.122E-02 0.172E-02
   -.404E-04 -.649E+02 -.459E+02   0.219E-05 0.745E+02 0.527E+02   -.594E-06 -.967E+01 -.683E+01   -.716E-06 -.244E-02 -.172E-02
   0.404E-04 0.649E+02 0.459E+02   -.219E-05 -.745E+02 -.527E+02   0.594E-06 0.967E+01 0.683E+01   0.716E-06 0.244E-02 0.172E-02
   -.562E+02 -.324E+02 0.459E+02   0.645E+02 0.373E+02 -.527E+02   -.837E+01 -.483E+01 0.683E+01   -.211E-02 -.122E-02 0.172E-02
 -----------------------------------------------------------------------------------------------
   0.133E-11 -.968E-11 -.175E-10   0.284E-13 -.142E-13 0.213E-13   0.000E+00 0.355E-14 -.178E-14   -.811E-13 -.135E-12 -.148E-12
 
 
 POSITION                                       TOTAL-FORCE (eV/Angst)
 -----------------------------------------------------------------------------------
      3.05029      1.76108      1.24527         0.000000      0.000000      0.000000
      9.15086      5.28325      3.73582         0.000000      0.000000      0.000000
      6.10057      3.52217      2.49055         0.000000      0.000000      0.000000
      0.00000      0.00000      0.00000         0.000000      0.000000      0.000000
      4.55386      4.41516      1.22766        -0.001486      0.000858     -0.001214
      7.64728      4.41516      1.22766         0.001486      0.000858     -0.001214
      7.64728      2.62917      3.75343         0.001486     -0.000858      0.001214
      6.10057      1.73618      1.22766         0.000000     -0.001716     -0.001214
      6.10057      5.30815      3.75343         0.000000      0.001716      0.001214
      4.55386      2.62917      3.75343        -0.001486     -0.000858      0.001214
 -----------------------------------------------------------------------------------
    total drift:                                0.000000      0.000000      0.000000


--------------------------------------------------------------------------------------------------------



  FREE ENERGIE OF THE ION-ELECTRON SYSTEM (eV)
  ---------------------------------------------------
  free  energy   TOTEN  =       -37.57290005 eV

  energy  without entropy=      -37.57290005  energy(sigma->0) =      -37.57290005
 


--------------------------------------------------------------------------------------------------------


    POTLOK:  cpu time    0.4639: real time    0.4638


--------------------------------------------------------------------------------------------------------


     LOOP+:  cpu time  561.8846: real time  584.4128
    4ORBIT:  cpu time    0.0000: real time    0.0000
 


 total charge     
 
# of ion     s       p       d       tot
----------------------------------------
  1        0.011   5.952   0.000   5.963
  2        0.011   5.952   0.000   5.963
  3        0.048   6.007   0.000   6.055
  4        0.421   0.388   8.461   9.270
  5        1.737   4.313   0.000   6.051
  6        1.738   4.306   0.000   6.044
  7        1.737   4.313   0.000   6.051
  8        1.737   4.313   0.000   6.050
  9        1.737   4.313   0.000   6.050
 10        1.738   4.306   0.000   6.044
------------------------------------------------
tot       10.916  44.164   8.461  63.541
 


 magnetization (x)
 
# of ion     s       p       d       tot
----------------------------------------
  1        0.000   0.000   0.000   0.000
  2        0.000   0.000   0.000   0.000
  3        0.005   0.007   0.000   0.012
  4       -0.008  -0.008   1.073   1.057
  5        0.004   0.142   0.000   0.146
  6        0.004   0.134   0.000   0.138
  7        0.004   0.142   0.000   0.146
  8        0.004   0.139   0.000   0.143
  9        0.004   0.139   0.000   0.143
 10        0.004   0.134   0.000   0.138
------------------------------------------------
tot        0.022   0.829   1.073   1.924
 
 BZINTS: Fermi energy: -0.652500; 74.000000 electrons
         Band energy:-845.568925;  BLOECHL correction:  0.000000

 total amount of memory used by VASP on root node   152835. kBytes
========================================================================

   base      :      30000. kBytes
   nonlr-proj:       5573. kBytes
   fftplans  :       8029. kBytes
   grid      :      28717. kBytes
   one-center:        311. kBytes
   wavefun   :      80205. kBytes
 
  
  
 General timing and accounting informations for this job:
 ========================================================
  
                  Total CPU time used (sec):      572.319
                            User time (sec):      566.925
                          System time (sec):        5.394
                         Elapsed time (sec):      597.107
  
                   Maximum memory used (kb):      181336.
                   Average memory used (kb):           0.
  
                          Minor page faults:      3213621
                          Major page faults:           41
                 Voluntary context switches:         7589
