 vasp.5.4.1 24Jun15 (build Jun 30 2015 11:48:55) complex                        
  
 executed on           IFC91_ompi date 2017.09.15  11:10:10
 running on    4 total cores
 distrk:  each k-point on    4 cores,    1 groups
 distr:  one band on NCORES_PER_BAND=   1 cores,    4 groups


--------------------------------------------------------------------------------------------------------


 INCAR:
 POTCAR:   PAW_PBE Rb_sv 06Sep2000                
 POTCAR:   PAW_PBE Ta_pv 07Sep2000                
 POTCAR:   PAW_PBE Tl_d 06Sep2000                 
 POTCAR:   PAW_PBE F 08Apr2002                    
 POTCAR:   PAW_PBE Rb_sv 06Sep2000                
   VRHFIN =Rb: 4s4p5s                                                           
   LEXCH  = PE                                                                  
   EATOM  =   662.0594 eV,   48.6600 Ry                                         
                                                                                
   TITEL  = PAW_PBE Rb_sv 06Sep2000                                             
   LULTRA =        F    use ultrasoft PP ?                                      
   IUNSCR =        1    unscreen: 0-lin 1-nonlin 2-no                           
   RPACOR =    2.200    partial core radius                                     
   POMASS =   85.468; ZVAL   =    9.000    mass and valenz                      
   RCORE  =    2.500    outmost cutoff radius                                   
   RWIGS  =    4.570; RWIGS  =    2.418    wigner-seitz radius (au A)           
   ENMAX  =  220.022; ENMIN  =  165.017 eV                                      
   RCLOC  =    2.200    cutoff for local pot                                    
   LCOR   =        T    correct aug charges                                     
   LPAW   =        T    paw PP                                                  
   EAUG   =  423.861                                                            
   DEXC   =     .000                                                            
   RMAX   =    3.108    core radius for proj-oper                               
   RAUG   =    1.300    factor for augmentation sphere                          
   RDEP   =    2.541    radius for radial grids                                 
   QCUT   =   -4.021; QGAM   =    8.043    optimization parameters              
                                                                                
   Description                                                                  
     l     E      TYP  RCUT    TYP  RCUT                                        
     0   .000     23  2.500                                                     
     0   .000     23  2.500                                                     
     1   .000     23  2.500                                                     
     1   .000     23  2.500                                                     
     2   .000     23  2.500                                                     
  local pseudopotential read in
  partial core-charges read in
  atomic valenz-charges read in
  non local Contribution for L=           0  read in
    real space projection operators read in
  non local Contribution for L=           0  read in
    real space projection operators read in
  non local Contribution for L=           1  read in
    real space projection operators read in
  non local Contribution for L=           1  read in
    real space projection operators read in
  non local Contribution for L=           2  read in
    real space projection operators read in
    PAW grid and wavefunctions read in
 
   number of l-projection  operators is LMAX  =           5
   number of lm-projection operators is LMMAX =          13
 
 POTCAR:   PAW_PBE Ta_pv 07Sep2000                
   VRHFIN =Ta:  5p6s5d                                                          
   LEXCH  = PE                                                                  
   EATOM  =  1045.8051 eV,   76.8645 Ry                                         
                                                                                
   TITEL  = PAW_PBE Ta_pv 07Sep2000                                             
   LULTRA =        F    use ultrasoft PP ?                                      
   IUNSCR =        1    unscreen: 0-lin 1-nonlin 2-no                           
   RPACOR =    2.330    partial core radius                                     
   POMASS =  180.948; ZVAL   =   11.000    mass and valenz                      
   RCORE  =    2.500    outmost cutoff radius                                   
   RWIGS  =    2.840; RWIGS  =    1.503    wigner-seitz radius (au A)           
   ENMAX  =  223.675; ENMIN  =  167.756 eV                                      
   RCLOC  =    2.205    cutoff for local pot                                    
   LCOR   =        T    correct aug charges                                     
   LPAW   =        T    paw PP                                                  
   EAUG   =  377.421                                                            
   DEXC   =    -.043                                                            
   RMAX   =    3.083    core radius for proj-oper                               
   RAUG   =    1.300    factor for augmentation sphere                          
   RDEP   =    2.526    radius for radial grids                                 
   QCUT   =   -4.055; QGAM   =    8.109    optimization parameters              
                                                                                
   Description                                                                  
     l     E      TYP  RCUT    TYP  RCUT                                        
     1   .000     23  2.500                                                     
     1   .100     23  2.500                                                     
     2   .000     23  2.500                                                     
     2   .000     23  2.500                                                     
     0   .000     23  2.500                                                     
     0   .000     23  2.500                                                     
     3   .000      7   .000                                                     
  local pseudopotential read in
  partial core-charges read in
  atomic valenz-charges read in
  non local Contribution for L=           1  read in
    real space projection operators read in
  non local Contribution for L=           1  read in
    real space projection operators read in
  non local Contribution for L=           2  read in
    real space projection operators read in
  non local Contribution for L=           2  read in
    real space projection operators read in
  non local Contribution for L=           0  read in
    real space projection operators read in
  non local Contribution for L=           0  read in
    real space projection operators read in
    PAW grid and wavefunctions read in
 
   number of l-projection  operators is LMAX  =           6
   number of lm-projection operators is LMMAX =          18
 
 POTCAR:   PAW_PBE Tl_d 06Sep2000                 
   VRHFIN =Tl:                                                                  
   LEXCH  = PE                                                                  
   EATOM  =  1391.5348 eV,  102.2749 Ry                                         
                                                                                
   TITEL  = PAW_PBE Tl_d 06Sep2000                                              
   LULTRA =        F    use ultrasoft PP ?                                      
   IUNSCR =        1    unscreen: 0-lin 1-nonlin 2-no                           
   RPACOR =    2.200    partial core radius                                     
   POMASS =  204.380; ZVAL   =   13.000    mass and valenz                      
   RCORE  =    2.500    outmost cutoff radius                                   
   RWIGS  =    3.260; RWIGS  =    1.725    wigner-seitz radius (au A)           
   ENMAX  =  237.063; ENMIN  =  177.797 eV                                      
   ICORE  =        3    local potential                                         
   LCOR   =        T    correct aug charges                                     
   LPAW   =        T    paw PP                                                  
   EAUG   =  395.511                                                            
   DEXC   =    -.006                                                            
   RMAX   =    2.995    core radius for proj-oper                               
   RAUG   =    1.300    factor for augmentation sphere                          
   RDEP   =    2.630    radius for radial grids                                 
   QCUT   =   -4.174; QGAM   =    8.348    optimization parameters              
                                                                                
   Description                                                                  
     l     E      TYP  RCUT    TYP  RCUT                                        
     2   .000     23  2.500                                                     
     2   .000     23  2.500                                                     
     0   .000     23  2.500                                                     
     0  1.000     23  2.500                                                     
     1   .000     23  2.500                                                     
     1  1.000     23  2.500                                                     
     3  -.100      7  2.500                                                     
  local pseudopotential read in
  partial core-charges read in
  atomic valenz-charges read in
  non local Contribution for L=           2  read in
    real space projection operators read in
  non local Contribution for L=           2  read in
    real space projection operators read in
  non local Contribution for L=           0  read in
    real space projection operators read in
  non local Contribution for L=           0  read in
    real space projection operators read in
  non local Contribution for L=           1  read in
    real space projection operators read in
  non local Contribution for L=           1  read in
    real space projection operators read in
    PAW grid and wavefunctions read in
 
   number of l-projection  operators is LMAX  =           6
   number of lm-projection operators is LMMAX =          18
 
 POTCAR:   PAW_PBE F 08Apr2002                    
   VRHFIN =F: s2p5                                                              
   LEXCH  = PE                                                                  
   EATOM  =   659.4942 eV,   48.4715 Ry                                         
                                                                                
   TITEL  = PAW_PBE F 08Apr2002                                                 
   LULTRA =        F    use ultrasoft PP ?                                      
   IUNSCR =        0    unscreen: 0-lin 1-nonlin 2-no                           
   RPACOR =     .000    partial core radius                                     
   POMASS =   18.998; ZVAL   =    7.000    mass and valenz                      
   RCORE  =    1.520    outmost cutoff radius                                   
   RWIGS  =    1.500; RWIGS  =     .794    wigner-seitz radius (au A)           
   ENMAX  =  400.000; ENMIN  =  300.000 eV                                      
   ICORE  =        2    local potential                                         
   LCOR   =        T    correct aug charges                                     
   LPAW   =        T    paw PP                                                  
   EAUG   =  613.614                                                            
   DEXC   =     .000                                                            
   RMAX   =    2.254    core radius for proj-oper                               
   RAUG   =    1.300    factor for augmentation sphere                          
   RDEP   =    1.539    radius for radial grids                                 
   QCUT   =   -5.545; QGAM   =   11.091    optimization parameters              
                                                                                
   Description                                                                  
     l     E      TYP  RCUT    TYP  RCUT                                        
     0   .000     23  1.200                                                     
     0  -.700     23  1.200                                                     
     1   .000     23  1.520                                                     
     1   .100     23  1.520                                                     
     2   .000      7  1.500                                                     
  local pseudopotential read in
  atomic valenz-charges read in
  non local Contribution for L=           0  read in
    real space projection operators read in
  non local Contribution for L=           0  read in
    real space projection operators read in
  non local Contribution for L=           1  read in
    real space projection operators read in
  non local Contribution for L=           1  read in
    real space projection operators read in
    PAW grid and wavefunctions read in
 
   number of l-projection  operators is LMAX  =           4
   number of lm-projection operators is LMMAX =           8
 
 Optimization of the real space projectors (new method)

 maximal supplied QI-value         = 15.12
 optimisation between [QCUT,QGAM] = [ 11.64, 23.28] = [ 37.95,151.78] Ry 
 Optimized for a Real-space Cutoff    1.63 Angstroem

   l    n(q)    QCUT    max X(q) W(low)/X(q) W(high)/X(q)  e(spline) 
   0     11    11.641     6.423    0.14E-04    0.17E-05    0.17E-07
   0     11    11.641    16.042    0.40E-04    0.49E-05    0.17E-06
   1     11    11.641     3.765    0.31E-05    0.35E-05    0.25E-07
   1     11    11.641    34.154    0.10E-03    0.47E-04    0.48E-06
   2     10    11.641    16.736    0.83E-05    0.11E-04    0.75E-07
 Optimization of the real space projectors (new method)

 maximal supplied QI-value         = 15.12
 optimisation between [QCUT,QGAM] = [ 11.64, 23.28] = [ 37.95,151.78] Ry 
 Optimized for a Real-space Cutoff    1.58 Angstroem

   l    n(q)    QCUT    max X(q) W(low)/X(q) W(high)/X(q)  e(spline) 
   1     11    11.641     4.548    0.51E-05    0.45E-05    0.25E-07
   1     11    11.641     4.993    0.39E-04    0.18E-04    0.22E-06
   2     10    11.641     3.708    0.46E-05    0.11E-04    0.70E-07
   2     10    11.641    32.949    0.58E-04    0.39E-03    0.13E-05
   0     11    11.641    26.166    0.21E-04    0.30E-05    0.63E-08
   0     11    11.641    91.725    0.22E-04    0.31E-04    0.19E-06
 Optimization of the real space projectors (new method)

 maximal supplied QI-value         = 15.12
 optimisation between [QCUT,QGAM] = [ 11.64, 23.28] = [ 37.95,151.78] Ry 
 Optimized for a Real-space Cutoff    1.49 Angstroem

   l    n(q)    QCUT    max X(q) W(low)/X(q) W(high)/X(q)  e(spline) 
   2      9    11.641     4.410    0.58E-04    0.14E-04    0.85E-07
   2      9    11.641     8.929    0.22E-03    0.82E-04    0.20E-06
   0     10    11.641     9.243    0.13E-04    0.79E-06    0.68E-08
   0     10    11.641    14.355    0.61E-04    0.23E-04    0.12E-06
   1     10    11.641    10.282    0.18E-05    0.13E-04    0.19E-07
   1     10    11.641    43.746    0.18E-04    0.83E-04    0.13E-06
 Optimization of the real space projectors (new method)

 maximal supplied QI-value         = 24.76
 optimisation between [QCUT,QGAM] = [ 11.64, 23.27] = [ 37.91,151.63] Ry 
 Optimized for a Real-space Cutoff    1.04 Angstroem

   l    n(q)    QCUT    max X(q) W(low)/X(q) W(high)/X(q)  e(spline) 
   0      7    11.635     4.906    0.48E-04    0.15E-03    0.36E-07
   0      7    11.635     5.365    0.12E-03    0.48E-03    0.17E-06
   1      7    11.635     2.511    0.70E-04    0.18E-03    0.19E-07
   1      7    11.635     3.801    0.23E-03    0.36E-03    0.19E-06
 PAW_PBE Rb_sv 06Sep2000                :
 energy of atom  1       EATOM= -662.0594
 kinetic energy error for atom=    0.0006 (will be added to EATOM!!)
 PAW_PBE Ta_pv 07Sep2000                :
 energy of atom  2       EATOM=-1045.8051
 kinetic energy error for atom=    0.0016 (will be added to EATOM!!)
 PAW_PBE Tl_d 06Sep2000                 :
 energy of atom  3       EATOM=-1391.5348
 kinetic energy error for atom=    0.0040 (will be added to EATOM!!)
 PAW_PBE F 08Apr2002                    :
 energy of atom  4       EATOM= -659.4942
 kinetic energy error for atom=    0.0323 (will be added to EATOM!!)
 
 
 POSCAR: Rb2 Ta1 Tl1 F6                          
  positions in direct lattice
  velocities in cartesian coordinates
 exchange correlation table for  LEXCH =        8
   RHO(1)=    0.500       N(1)  =     2000
   RHO(2)=  100.500       N(2)  =     4000
 


--------------------------------------------------------------------------------------------------------


 ion  position               nearest neighbor table
   1  0.250  0.250  0.250-   7 3.41   6 3.41   8 3.41   7 3.41   6 3.41   8 3.41   9 3.41   9 3.41
                            10 3.41   5 3.41  10 3.41   5 3.41   3 4.16   4 4.16   4 4.16   3 4.16
   2  0.750  0.750  0.750-   5 3.41  10 3.41   9 3.41   5 3.41  10 3.41   9 3.41   8 3.41   8 3.41
                             6 3.41   7 3.41   6 3.41   7 3.41   3 4.16   4 4.16   4 4.16   3 4.16
   3  0.000  0.000  0.000-   6 2.06  10 2.06   7 2.06   5 2.06   9 2.06   8 2.06   2 4.16   1 4.16
                             1 4.16   2 4.16   1 4.16   2 4.16   2 4.16   1 4.16
   4  0.500  0.500  0.500-   6 2.74  10 2.74   7 2.74   5 2.74   9 2.74   8 2.74   1 4.16   2 4.16
                             2 4.16   1 4.16   2 4.16   1 4.16   2 4.16   1 4.16
   5  0.215  0.785  0.215-   3 2.06   4 2.74   2 3.41   2 3.41   1 3.41   1 3.41
   6  0.785  0.785  0.215-   3 2.06   4 2.74   1 3.41   1 3.41   2 3.41   2 3.41
   7  0.785  0.215  0.785-   3 2.06   4 2.74   1 3.41   1 3.41   2 3.41   2 3.41
   8  0.785  0.215  0.215-   3 2.06   4 2.74   1 3.41   1 3.41   2 3.41   2 3.41
   9  0.215  0.785  0.785-   3 2.06   4 2.74   2 3.41   2 3.41   1 3.41   1 3.41
  10  0.215  0.215  0.785-   3 2.06   4 2.74   2 3.41   2 3.41   1 3.41   1 3.41
 
  LATTYP: Found a face centered cubic cell.
 ALAT       =     9.6012001769
  
  Lattice vectors:
  
 A1 = (   6.7890735986,  -0.0000001319,  -0.0000000933)
 A2 = (   3.3945370829,   5.8795102277,  -0.0000000466)
 A3 = (   3.3945370829,   1.9598366986,   5.5432554087)


Analysis of symmetry for initial positions (statically):
=====================================================================
 Subroutine PRICEL returns:
 Original cell was already a primitive cell.
 

 Routine SETGRP: Setting up the symmetry group for a 
 face centered cubic supercell.


 Subroutine GETGRP returns: Found 48 space group operations
 (whereof 48 operations were pure point group operations)
 out of a pool of 48 trial point group operations.


The static configuration has the point symmetry O_h .


Analysis of symmetry for dynamics (positions and initial velocities):
=====================================================================
 Subroutine PRICEL returns:
 Original cell was already a primitive cell.
 

 Routine SETGRP: Setting up the symmetry group for a 
 face centered cubic supercell.


 Subroutine GETGRP returns: Found 48 space group operations
 (whereof 48 operations were pure point group operations)
 out of a pool of 48 trial point group operations.


The dynamic configuration has the point symmetry O_h .


Analysis of magnetic symmetry:
=====================================================================
 Subroutine PRICEL returns:
 Original cell was already a primitive cell.
 

 Subroutine MAGSYM returns: Found 48 space group operations
 (whereof 48 operations were pure point group operations)
 out of a pool of 48 trial space group operations
 (whereof 48 operations were pure point group operations)
 and found also     1 'primitive' translations


The magnetic configuration has the point symmetry O_h .
 
 
 KPOINTS: k-points                                

Automatic generation of k-mesh.
Space group operators:
 irot       det(A)        alpha          n_x          n_y          n_z        tau_x        tau_y        tau_z
    1     1.000000     0.000001     1.000000     0.000000     0.000000     0.000000     0.000000     0.000000
    2    -1.000000     0.000001     1.000000     0.000000     0.000000     0.000000     0.000000     0.000000
    3     1.000000   120.000000    -0.816497    -0.471404    -0.333333     0.000000     0.000000     0.000000
    4    -1.000000   120.000000    -0.816497    -0.471404    -0.333333     0.000000     0.000000     0.000000
    5     1.000000   120.000000     0.816497     0.471405     0.333333     0.000000     0.000000     0.000000
    6    -1.000000   120.000000     0.816497     0.471405     0.333333     0.000000     0.000000     0.000000
    7     1.000000    90.000000    -0.707107    -0.408248     0.577350     0.000000     0.000000     0.000000
    8    -1.000000    90.000000    -0.707107    -0.408248     0.577350     0.000000     0.000000     0.000000
    9     1.000000   180.000000     1.000000     0.000000     0.000000     0.000000     0.000000     0.000000
   10    -1.000000   180.000000     1.000000     0.000000     0.000000     0.000000     0.000000     0.000000
   11     1.000000    90.000000     0.707107    -0.408248     0.577350     0.000000     0.000000     0.000000
   12    -1.000000    90.000000     0.707107    -0.408248     0.577350     0.000000     0.000000     0.000000
   13     1.000000   180.000000     0.707107     0.408248    -0.577350     0.000000     0.000000     0.000000
   14    -1.000000   180.000000     0.707107     0.408248    -0.577350     0.000000     0.000000     0.000000
   15     1.000000   120.000000     0.816497    -0.471405    -0.333333     0.000000     0.000000     0.000000
   16    -1.000000   120.000000     0.816497    -0.471405    -0.333333     0.000000     0.000000     0.000000
   17     1.000000   120.000000     0.000000    -0.942809     0.333333     0.000000     0.000000     0.000000
   18    -1.000000   120.000000     0.000000    -0.942809     0.333333     0.000000     0.000000     0.000000
   19     1.000000    90.000000     0.707107     0.408248    -0.577350     0.000000     0.000000     0.000000
   20    -1.000000    90.000000     0.707107     0.408248    -0.577350     0.000000     0.000000     0.000000
   21     1.000000    90.000000     0.000000    -0.816497    -0.577350     0.000000     0.000000     0.000000
   22    -1.000000    90.000000     0.000000    -0.816497    -0.577350     0.000000     0.000000     0.000000
   23     1.000000   179.999999     0.500000     0.866025     0.000000     0.000000     0.000000     0.000000
   24    -1.000000   179.999999     0.500000     0.866025     0.000000     0.000000     0.000000     0.000000
   25     1.000000   120.000000     0.000000     0.942809    -0.333333     0.000000     0.000000     0.000000
   26    -1.000000   120.000000     0.000000     0.942809    -0.333333     0.000000     0.000000     0.000000
   27     1.000000   120.000000     0.000000     0.000000    -1.000000     0.000000     0.000000     0.000000
   28    -1.000000   120.000000     0.000000     0.000000    -1.000000     0.000000     0.000000     0.000000
   29     1.000000   179.999999     0.000000    -0.816497    -0.577350     0.000000     0.000000     0.000000
   30    -1.000000   179.999999     0.000000    -0.816497    -0.577350     0.000000     0.000000     0.000000
   31     1.000000    90.000000    -0.707107     0.408248    -0.577350     0.000000     0.000000     0.000000
   32    -1.000000    90.000000    -0.707107     0.408248    -0.577350     0.000000     0.000000     0.000000
   33     1.000000   179.999999     0.500000     0.288675     0.816497     0.000000     0.000000     0.000000
   34    -1.000000   179.999999     0.500000     0.288675     0.816497     0.000000     0.000000     0.000000
   35     1.000000    90.000000     0.000000     0.816497     0.577350     0.000000     0.000000     0.000000
   36    -1.000000    90.000000     0.000000     0.816497     0.577350     0.000000     0.000000     0.000000
   37     1.000000   120.000000    -0.816497     0.471405     0.333333     0.000000     0.000000     0.000000
   38    -1.000000   120.000000    -0.816497     0.471405     0.333333     0.000000     0.000000     0.000000
   39     1.000000   179.999999    -0.707107     0.408248    -0.577350     0.000000     0.000000     0.000000
   40    -1.000000   179.999999    -0.707107     0.408248    -0.577350     0.000000     0.000000     0.000000
   41     1.000000   120.000000     0.000000     0.000000     1.000000     0.000000     0.000000     0.000000
   42    -1.000000   120.000000     0.000000     0.000000     1.000000     0.000000     0.000000     0.000000
   43     1.000000   180.000000     0.000000     0.577350    -0.816497     0.000000     0.000000     0.000000
   44    -1.000000   180.000000     0.000000     0.577350    -0.816497     0.000000     0.000000     0.000000
   45     1.000000   180.000000    -0.500000     0.866025     0.000000     0.000000     0.000000     0.000000
   46    -1.000000   180.000000    -0.500000     0.866025     0.000000     0.000000     0.000000     0.000000
   47     1.000000   179.999999    -0.500000     0.288675     0.816497     0.000000     0.000000     0.000000
   48    -1.000000   179.999999    -0.500000     0.288675     0.816497     0.000000     0.000000     0.000000
 
 Subroutine IBZKPT returns following result:
 ===========================================
 
 Found     47 irreducible k-points:
 
 Following reciprocal coordinates:
            Coordinates               Weight
  0.000000  0.000000  0.000000      1.000000
  0.100000  0.000000  0.000000      8.000000
  0.200000  0.000000  0.000000      8.000000
  0.300000  0.000000  0.000000      8.000000
  0.400000  0.000000  0.000000      8.000000
  0.500000  0.000000  0.000000      4.000000
  0.100000  0.100000  0.000000      6.000000
  0.200000  0.100000  0.000000     24.000000
  0.300000  0.100000  0.000000     24.000000
  0.400000  0.100000  0.000000     24.000000
  0.500000  0.100000  0.000000     24.000000
 -0.400000  0.100000  0.000000     24.000000
 -0.300000  0.100000  0.000000     24.000000
 -0.200000  0.100000  0.000000     24.000000
 -0.100000  0.100000  0.000000     12.000000
  0.200000  0.200000  0.000000      6.000000
  0.300000  0.200000  0.000000     24.000000
  0.400000  0.200000  0.000000     24.000000
  0.500000  0.200000  0.000000     24.000000
 -0.400000  0.200000  0.000000     24.000000
 -0.300000  0.200000  0.000000     24.000000
 -0.200000  0.200000  0.000000     12.000000
  0.300000  0.300000  0.000000      6.000000
  0.400000  0.300000  0.000000     24.000000
  0.500000  0.300000  0.000000     24.000000
 -0.400000  0.300000  0.000000     24.000000
 -0.300000  0.300000  0.000000     12.000000
  0.400000  0.400000  0.000000      6.000000
  0.500000  0.400000  0.000000     24.000000
 -0.400000  0.400000  0.000000     12.000000
  0.500000  0.500000  0.000000      3.000000
  0.300000  0.200000  0.100000     24.000000
  0.400000  0.200000  0.100000     48.000000
  0.500000  0.200000  0.100000     48.000000
 -0.400000  0.200000  0.100000     24.000000
  0.400000  0.300000  0.100000     24.000000
  0.500000  0.300000  0.100000     48.000000
 -0.400000  0.300000  0.100000     48.000000
 -0.300000  0.300000  0.100000     48.000000
 -0.200000  0.300000  0.100000     24.000000
  0.500000  0.400000  0.100000     24.000000
 -0.400000  0.400000  0.100000     48.000000
 -0.300000  0.400000  0.100000     24.000000
 -0.400000  0.500000  0.100000     12.000000
 -0.400000  0.400000  0.200000     24.000000
 -0.300000  0.400000  0.200000     24.000000
 -0.300000  0.500000  0.200000     12.000000
 
 Following cartesian coordinates:
            Coordinates               Weight
  0.000000  0.000000  0.000000      1.000000
  0.014730 -0.008504 -0.006013      8.000000
  0.029459 -0.017008 -0.012027      8.000000
  0.044189 -0.025512 -0.018040      8.000000
  0.058918 -0.034016 -0.024053      8.000000
  0.073648 -0.042521 -0.030067      4.000000
  0.014730  0.008504 -0.012027      6.000000
  0.029459  0.000000 -0.018040     24.000000
  0.044189 -0.008504 -0.024053     24.000000
  0.058918 -0.017008 -0.030067     24.000000
  0.073648 -0.025512 -0.036080     24.000000
 -0.058918  0.051025  0.018040     24.000000
 -0.044189  0.042521  0.012027     24.000000
 -0.029459  0.034016  0.006013     24.000000
 -0.014730  0.025512  0.000000     12.000000
  0.029459  0.017008 -0.024053      6.000000
  0.044189  0.008504 -0.030067     24.000000
  0.058918  0.000000 -0.036080     24.000000
  0.073648 -0.008504 -0.042093     24.000000
 -0.058918  0.068033  0.012027     24.000000
 -0.044189  0.059529  0.006013     24.000000
 -0.029459  0.051025  0.000000     12.000000
  0.044189  0.025512 -0.036080      6.000000
  0.058918  0.017008 -0.042093     24.000000
  0.073648  0.008504 -0.048107     24.000000
 -0.058918  0.085041  0.006013     24.000000
 -0.044189  0.076537  0.000000     12.000000
  0.058918  0.034016 -0.048107      6.000000
  0.073648  0.025512 -0.054120     24.000000
 -0.058918  0.102049  0.000000     12.000000
  0.073648  0.042521 -0.060133      3.000000
  0.044189  0.008504 -0.012027     24.000000
  0.058918  0.000000 -0.018040     48.000000
  0.073648 -0.008504 -0.024053     48.000000
 -0.058918  0.068033  0.030067     24.000000
  0.058918  0.017008 -0.024053     24.000000
  0.073648  0.008504 -0.030067     48.000000
 -0.058918  0.085041  0.024053     48.000000
 -0.044189  0.076537  0.018040     48.000000
 -0.029459  0.068033  0.012027     24.000000
  0.073648  0.025512 -0.036080     24.000000
 -0.058918  0.102049  0.018040     48.000000
 -0.044189  0.093545  0.012027     24.000000
 -0.058918  0.119058  0.012027     12.000000
 -0.058918  0.102049  0.036080     24.000000
 -0.044189  0.093545  0.030067     24.000000
 -0.044189  0.110553  0.024053     12.000000
 
 TETIRR: Found    148 inequivalent tetrahedra from     6000


--------------------------------------------------------------------------------------------------------




 Dimension of arrays:
   k-points           NKPTS =     47   k-points in BZ     NKDIM =     47   number of bands    NBANDS=     56
   number of dos      NEDOS =   3001   number of ions     NIONS =     10
   non local maximal  LDIM  =      6   non local SUM 2l+1 LMDIM =     18
   total plane-waves  NPLWV = 125000
   max r-space proj   IRMAX =  10245   max aug-charges    IRDMAX=  31933
   dimension x,y,z NGX =    50 NGY =   50 NGZ =   50
   dimension x,y,z NGXF=   100 NGYF=  100 NGZF=  100
   support grid    NGXF=   100 NGYF=  100 NGZF=  100
   ions per type =               2   1   1   6
 NGX,Y,Z   is equivalent  to a cutoff of  12.24, 12.24, 12.24 a.u.
 NGXF,Y,Z  is equivalent  to a cutoff of  24.49, 24.49, 24.49 a.u.


 I would recommend the setting:
   dimension x,y,z NGX =    50 NGY =   50 NGZ =   50
 SYSTEM =  unknown system                          
 POSCAR =  Rb2 Ta1 Tl1 F6                          

 Startparameter for this run:
   NWRITE =      2    write-flag & timer
   PREC   = accura    normal or accurate (medium, high low for compatibility)
   ISTART =      0    job   : 0-new  1-cont  2-samecut
   ICHARG =      1    charge: 1-file 2-atom 10-const
   ISPIN  =      2    spin polarized calculation?
   LNONCOLLINEAR =      F non collinear calculations
   LSORBIT =      F    spin-orbit coupling
   INIWAV =      1    electr: 0-lowe 1-rand  2-diag
   LASPH  =      F    aspherical Exc in radial PAW
   METAGGA=      F    non-selfconsistent MetaGGA calc.

 Electronic Relaxation 1
   ENCUT  =  520.0 eV  38.22 Ry    6.18 a.u.  12.62 12.62 12.62*2*pi/ulx,y,z
   ENINI  =  520.0     initial cutoff
   ENAUG  =  613.6 eV  augmentation charge cutoff
   NELM   =    100;   NELMIN=  2; NELMDL= -5     # of ELM steps 
   EDIFF  = 0.1E-04   stopping-criterion for ELM
   LREAL  =      T    real-space projection
   NLSPLINE    = F    spline interpolate recip. space projectors
   LCOMPAT=      F    compatible to vasp.4.4
   GGA_COMPAT  = T    GGA compatible to vasp.4.4-vasp.4.6
   LMAXPAW     = -100 max onsite density
   LMAXMIX     =    2 max onsite mixed and CHGCAR
   VOSKOWN=      0    Vosko Wilk Nusair interpolation
   ROPT   =   -0.00025  -0.00025  -0.00025  -0.00025
 Ionic relaxation
   EDIFFG = -.1E-01   stopping-criterion for IOM
   NSW    =      0    number of steps for IOM
   NBLOCK =      1;   KBLOCK =      1    inner block; outer block 
   IBRION =     -1    ionic relax: 0-MD 1-quasi-New 2-CG
   NFREE  =      0    steps in history (QN), initial steepest desc. (CG)
   ISIF   =      3    stress and relaxation
   IWAVPR =     10    prediction:  0-non 1-charg 2-wave 3-comb
   ISYM   =      2    0-nonsym 1-usesym 2-fastsym
   LCORR  =      T    Harris-Foulkes like correction to forces

   POTIM  = 0.5000    time-step for ionic-motion
   TEIN   =    0.0    initial temperature
   TEBEG  =    0.0;   TEEND  =   0.0 temperature during run
   SMASS  =  -3.00    Nose mass-parameter (am)
   estimated Nose-frequenzy (Omega)   =  0.10E-29 period in steps =****** mass=  -0.105E-26a.u.
   SCALEE = 1.0000    scale energy and forces
   NPACO  =    256;   APACO  = 16.0  distance and # of slots for P.C.
   PSTRESS=    0.0 pullay stress

  Mass of Ions in am
   POMASS =  85.47180.95204.38 19.00
  Ionic Valenz
   ZVAL   =   9.00 11.00 13.00  7.00
  Atomic Wigner-Seitz radii
   RWIGS  =  -1.00 -1.00 -1.00 -1.00
  virtual crystal weights 
   VCA    =   1.00  1.00  1.00  1.00
   NELECT =      84.0000    total number of electrons
   NUPDOWN=      -1.0000    fix difference up-down

 DOS related values:
   EMIN   =  -8.00;   EMAX   = 12.00  energy-range for DOS
   EFERMI =   0.00
   ISMEAR =    -5;   SIGMA  =   0.05  broadening in eV -4-tet -1-fermi 0-gaus

 Electronic relaxation 2 (details)
   IALGO  =     68    algorithm
   LDIAG  =      T    sub-space diagonalisation (order eigenvalues)
   LSUBROT=      F    optimize rotation matrix (better conditioning)
   TURBO    =      0    0=normal 1=particle mesh
   IRESTART =      0    0=no restart 2=restart with 2 vectors
   NREBOOT  =      0    no. of reboots
   NMIN     =      0    reboot dimension
   EREF     =   0.00    reference energy to select bands
   IMIX   =      4    mixing-type and parameters
     AMIX     =   0.40;   BMIX     =  1.00
     AMIX_MAG =   1.60;   BMIX_MAG =  1.00
     AMIN     =   0.10
     WC   =   100.;   INIMIX=   1;  MIXPRE=   1;  MAXMIX= -45

 Intra band minimization:
   WEIMIN = 0.0000     energy-eigenvalue tresh-hold
   EBREAK =  0.45E-07  absolut break condition
   DEPER  =   0.30     relativ break condition  

   TIME   =   0.40     timestep for ELM

  volume/ion in A,a.u.               =      22.13       149.32
  Fermi-wavevector in a.u.,A,eV,Ry     =   1.185393  2.240068 19.118320  1.405157
  Thomas-Fermi vector in A             =   2.321588
 
 Write flags
   LWAVE  =      F    write WAVECAR
   LCHARG =      T    write CHGCAR
   LVTOT  =      F    write LOCPOT, total local potential
   LVHAR  =      F    write LOCPOT, Hartree potential only
   LELF   =      F    write electronic localiz. function (ELF)
   LORBIT =     11    0 simple, 1 ext, 2 COOP (PROOUT)


 Dipole corrections
   LMONO  =      F    monopole corrections only (constant potential shift)
   LDIPOL =      F    correct potential (dipole corrections)
   IDIPOL =      0    1-x, 2-y, 3-z, 4-all directions 
   EPSILON=  1.0000000 bulk dielectric constant

 Exchange correlation treatment:
   GGA     =    --    GGA type
   LEXCH   =     8    internal setting for exchange type
   VOSKOWN=      0    Vosko Wilk Nusair interpolation
   LHFCALC =     F    Hartree Fock is set to
   LHFONE  =     F    Hartree Fock one center treatment
   AEXX    =    0.0000 exact exchange contribution

 Linear response parameters
   LEPSILON=     F    determine dielectric tensor
   LRPA    =     F    only Hartree local field effects (RPA)
   LNABLA  =     F    use nabla operator in PAW spheres
   LVEL    =     F    velocity operator in full k-point grid
   LINTERFAST=   F  fast interpolation
   KINTER  =     0    interpolate to denser k-point grid
   CSHIFT  =0.1000    complex shift for real part using Kramers Kronig
   OMEGAMAX=  -1.0    maximum frequency
   DEG_THRESHOLD= 0.2000000E-02 threshold for treating states as degnerate
   RTIME   =    0.100 relaxation time in fs

 Orbital magnetization related:
   ORBITALMAG=     F  switch on orbital magnetization
   LCHIMAG   =     F  perturbation theory with respect to B field
   DQ        =  0.001000  dq finite difference perturbation B field



--------------------------------------------------------------------------------------------------------


 Static calculation
 charge density and potential will be updated during run
 spin polarized calculation
 RMM-DIIS sequential band-by-band and
  variant of blocked Davidson during initial phase
 perform sub-space diagonalisation
    before iterative eigenvector-optimisation
 modified Broyden-mixing scheme, WC =      100.0
 initial mixing is a Kerker type mixing with AMIX =  0.4000 and BMIX =      1.0000
 Hartree-type preconditioning will be used
 using additional bands           14
 real space projection scheme for non local part
 use partial core corrections
 calculate Harris-corrections to forces 
   (improved forces if not selfconsistent)
 use gradient corrections 
 use of overlap-Matrix (Vanderbilt PP)
 Fermi weights with tetrahedron method with Bloechl corrections


--------------------------------------------------------------------------------------------------------


  energy-cutoff  :      520.00
  volume of cell :      221.27
      direct lattice vectors                 reciprocal lattice vectors
     6.789073599 -0.000000132 -0.000000093     0.147295499 -0.085041103 -0.060133141
     3.394537083  5.879510228 -0.000000047     0.000000002  0.170082192 -0.060133136
     3.394537083  1.959836699  5.543255409     0.000000002  0.000000000  0.180399408

  length of vectors
     6.789073599  6.789073760  6.789073753     0.180399412  0.180399407  0.180399408


 
 k-points in units of 2pi/SCALE and weight: k-points                                
   0.00000000  0.00000000  0.00000000       0.001
   0.01472955 -0.00850411 -0.00601331       0.008
   0.02945910 -0.01700822 -0.01202663       0.008
   0.04418865 -0.02551233 -0.01803994       0.008
   0.05891820 -0.03401644 -0.02405326       0.008
   0.07364775 -0.04252055 -0.03006657       0.004
   0.01472955  0.00850411 -0.01202663       0.006
   0.02945910  0.00000000 -0.01803994       0.024
   0.04418865 -0.00850411 -0.02405326       0.024
   0.05891820 -0.01700822 -0.03006657       0.024
   0.07364775 -0.02551233 -0.03607988       0.024
  -0.05891820  0.05102466  0.01803994       0.024
  -0.04418865  0.04252055  0.01202663       0.024
  -0.02945910  0.03401644  0.00601331       0.024
  -0.01472955  0.02551233  0.00000000       0.012
   0.02945910  0.01700822 -0.02405326       0.006
   0.04418865  0.00850411 -0.03006657       0.024
   0.05891820  0.00000000 -0.03607988       0.024
   0.07364775 -0.00850411 -0.04209320       0.024
  -0.05891820  0.06803288  0.01202663       0.024
  -0.04418865  0.05952877  0.00601332       0.024
  -0.02945910  0.05102466  0.00000000       0.012
   0.04418865  0.02551233 -0.03607988       0.006
   0.05891820  0.01700822 -0.04209320       0.024
   0.07364775  0.00850411 -0.04810651       0.024
  -0.05891820  0.08504110  0.00601332       0.024
  -0.04418865  0.07653699  0.00000000       0.012
   0.05891820  0.03401644 -0.04810651       0.006
   0.07364775  0.02551233 -0.05411982       0.024
  -0.05891820  0.10204932  0.00000000       0.012
   0.07364775  0.04252054 -0.06013314       0.003
   0.04418865  0.00850411 -0.01202663       0.024
   0.05891820  0.00000000 -0.01803994       0.048
   0.07364775 -0.00850411 -0.02405326       0.048
  -0.05891820  0.06803288  0.03006657       0.024
   0.05891820  0.01700822 -0.02405326       0.024
   0.07364775  0.00850411 -0.03006657       0.048
  -0.05891820  0.08504110  0.02405326       0.048
  -0.04418865  0.07653699  0.01803994       0.048
  -0.02945910  0.06803288  0.01202663       0.024
   0.07364775  0.02551233 -0.03607988       0.024
  -0.05891820  0.10204932  0.01803994       0.048
  -0.04418865  0.09354521  0.01202663       0.024
  -0.05891820  0.11905754  0.01202663       0.012
  -0.05891820  0.10204932  0.03607988       0.024
  -0.04418865  0.09354521  0.03006657       0.024
  -0.04418865  0.11055343  0.02405326       0.012
 
 k-points in reciprocal lattice and weights: k-points                                
   0.00000000  0.00000000  0.00000000       0.001
   0.10000000  0.00000000  0.00000000       0.008
   0.20000000  0.00000000  0.00000000       0.008
   0.30000000  0.00000000  0.00000000       0.008
   0.40000000  0.00000000  0.00000000       0.008
   0.50000000  0.00000000  0.00000000       0.004
   0.10000000  0.10000000  0.00000000       0.006
   0.20000000  0.10000000  0.00000000       0.024
   0.30000000  0.10000000  0.00000000       0.024
   0.40000000  0.10000000  0.00000000       0.024
   0.50000000  0.10000000  0.00000000       0.024
  -0.40000000  0.10000000  0.00000000       0.024
  -0.30000000  0.10000000  0.00000000       0.024
  -0.20000000  0.10000000  0.00000000       0.024
  -0.10000000  0.10000000  0.00000000       0.012
   0.20000000  0.20000000  0.00000000       0.006
   0.30000000  0.20000000  0.00000000       0.024
   0.40000000  0.20000000  0.00000000       0.024
   0.50000000  0.20000000  0.00000000       0.024
  -0.40000000  0.20000000  0.00000000       0.024
  -0.30000000  0.20000000  0.00000000       0.024
  -0.20000000  0.20000000  0.00000000       0.012
   0.30000000  0.30000000  0.00000000       0.006
   0.40000000  0.30000000  0.00000000       0.024
   0.50000000  0.30000000  0.00000000       0.024
  -0.40000000  0.30000000  0.00000000       0.024
  -0.30000000  0.30000000  0.00000000       0.012
   0.40000000  0.40000000  0.00000000       0.006
   0.50000000  0.40000000  0.00000000       0.024
  -0.40000000  0.40000000  0.00000000       0.012
   0.50000000  0.50000000  0.00000000       0.003
   0.30000000  0.20000000  0.10000000       0.024
   0.40000000  0.20000000  0.10000000       0.048
   0.50000000  0.20000000  0.10000000       0.048
  -0.40000000  0.20000000  0.10000000       0.024
   0.40000000  0.30000000  0.10000000       0.024
   0.50000000  0.30000000  0.10000000       0.048
  -0.40000000  0.30000000  0.10000000       0.048
  -0.30000000  0.30000000  0.10000000       0.048
  -0.20000000  0.30000000  0.10000000       0.024
   0.50000000  0.40000000  0.10000000       0.024
  -0.40000000  0.40000000  0.10000000       0.048
  -0.30000000  0.40000000  0.10000000       0.024
  -0.40000000  0.50000000  0.10000000       0.012
  -0.40000000  0.40000000  0.20000000       0.024
  -0.30000000  0.40000000  0.20000000       0.024
  -0.30000000  0.50000000  0.20000000       0.012
 
 position of ions in fractional coordinates (direct lattice) 
   0.25000000  0.25000000  0.25000000
   0.75000000  0.75000000  0.75000000
   0.00000000  0.00000000  0.00000000
   0.50000000  0.50000000  0.50000000
   0.21465119  0.78534881  0.21465119
   0.78534881  0.78534881  0.21465119
   0.78534881  0.21465119  0.78534881
   0.78534881  0.21465119  0.21465119
   0.21465119  0.78534881  0.78534881
   0.21465119  0.21465119  0.78534881
 
 position of ions in cartesian coordinates  (Angst):
   3.39453694  1.95983670  1.38581382
  10.18361082  5.87951010  4.15744145
   0.00000000  0.00000000  0.00000000
   6.78907388  3.91967340  2.77162763
   4.85181983  5.03814760  1.18986633
   8.72632794  5.03814753  1.18986627
   8.72632794  2.80119919  4.35338894
   6.78907372  1.68272506  1.18986630
   6.78907405  6.15662173  4.35338897
   4.85181983  2.80119927  4.35338899
 


--------------------------------------------------------------------------------------------------------


 k-point  1 :   0.0000 0.0000 0.0000  plane waves:    5961
 k-point  2 :   0.1000 0.0000 0.0000  plane waves:    5955
 k-point  3 :   0.2000 0.0000 0.0000  plane waves:    5967
 k-point  4 :   0.3000 0.0000 0.0000  plane waves:    5982
 k-point  5 :   0.4000 0.0000 0.0000  plane waves:    5963
 k-point  6 :   0.5000 0.0000 0.0000  plane waves:    5936
 k-point  7 :   0.1000 0.1000 0.0000  plane waves:    5970
 k-point  8 :   0.2000 0.1000 0.0000  plane waves:    5978
 k-point  9 :   0.3000 0.1000 0.0000  plane waves:    5971
 k-point 10 :   0.4000 0.1000 0.0000  plane waves:    5961
 k-point 11 :   0.5000 0.1000 0.0000  plane waves:    5967
 k-point 12 :  -0.4000 0.1000 0.0000  plane waves:    5968
 k-point 13 :  -0.3000 0.1000 0.0000  plane waves:    5961
 k-point 14 :  -0.2000 0.1000 0.0000  plane waves:    5974
 k-point 15 :  -0.1000 0.1000 0.0000  plane waves:    5975
 k-point 16 :   0.2000 0.2000 0.0000  plane waves:    5958
 k-point 17 :   0.3000 0.2000 0.0000  plane waves:    5972
 k-point 18 :   0.4000 0.2000 0.0000  plane waves:    5952
 k-point 19 :   0.5000 0.2000 0.0000  plane waves:    5954
 k-point 20 :  -0.4000 0.2000 0.0000  plane waves:    5940
 k-point 21 :  -0.3000 0.2000 0.0000  plane waves:    5963
 k-point 22 :  -0.2000 0.2000 0.0000  plane waves:    5969
 k-point 23 :   0.3000 0.3000 0.0000  plane waves:    5958
 k-point 24 :   0.4000 0.3000 0.0000  plane waves:    5967
 k-point 25 :   0.5000 0.3000 0.0000  plane waves:    5951
 k-point 26 :  -0.4000 0.3000 0.0000  plane waves:    5943
 k-point 27 :  -0.3000 0.3000 0.0000  plane waves:    5945
 k-point 28 :   0.4000 0.4000 0.0000  plane waves:    5930
 k-point 29 :   0.5000 0.4000 0.0000  plane waves:    5941
 k-point 30 :  -0.4000 0.4000 0.0000  plane waves:    5928
 k-point 31 :   0.5000 0.5000 0.0000  plane waves:    5962
 k-point 32 :   0.3000 0.2000 0.1000  plane waves:    5960
 k-point 33 :   0.4000 0.2000 0.1000  plane waves:    5962
 k-point 34 :   0.5000 0.2000 0.1000  plane waves:    5955
 k-point 35 :  -0.4000 0.2000 0.1000  plane waves:    5944
 k-point 36 :   0.4000 0.3000 0.1000  plane waves:    5968
 k-point 37 :   0.5000 0.3000 0.1000  plane waves:    5962
 k-point 38 :  -0.4000 0.3000 0.1000  plane waves:    5959
 k-point 39 :  -0.3000 0.3000 0.1000  plane waves:    5947
 k-point 40 :  -0.2000 0.3000 0.1000  plane waves:    5958
 k-point 41 :   0.5000 0.4000 0.1000  plane waves:    5960
 k-point 42 :  -0.4000 0.4000 0.1000  plane waves:    5954
 k-point 43 :  -0.3000 0.4000 0.1000  plane waves:    5939
 k-point 44 :  -0.4000 0.5000 0.1000  plane waves:    5952
 k-point 45 :  -0.4000 0.4000 0.2000  plane waves:    5977
 k-point 46 :  -0.3000 0.4000 0.2000  plane waves:    5948
 k-point 47 :  -0.3000 0.5000 0.2000  plane waves:    5948

 maximum and minimum number of plane-waves per node :      5982     5928

 maximum number of plane-waves:      5982
 maximum index in each direction: 
   IXMAX=   13   IYMAX=   12   IZMAX=   12
   IXMIN=  -13   IYMIN=  -13   IZMIN=  -12

 WARNING: aliasing errors must be expected set NGX to  54 to avoid them
 WARNING: aliasing errors must be expected set NGY to  52 to avoid them
 NGZ is ok and might be reduce to  50
 aliasing errors are usually negligible using standard VASP settings
 and one can safely disregard these warnings

 serial   3D FFT for wavefunctions
 parallel 3D FFT for charge:
    minimum data exchange during FFTs selected (reduces bandwidth)


 total amount of memory used by VASP on root node   209986. kBytes
========================================================================

   base      :      30000. kBytes
   nonlr-proj:       7753. kBytes
   fftplans  :       9085. kBytes
   grid      :      34480. kBytes
   one-center:        311. kBytes
   wavefun   :     128357. kBytes
 
     INWAV:  cpu time    0.0000: real time    0.0001
 Broyden mixing: mesh for mixing (old mesh)
   NGX = 25   NGY = 25   NGZ = 25
  (NGX  =100   NGY  =100   NGZ  =100)
  gives a total of  15625 points

 initial charge density was supplied:
 charge density of overlapping atoms calculated
 number of electron      84.0000000 magnetization       6.0000000
 keeping initial charge density in first step


--------------------------------------------------------------------------------------------------------


 Maximum index for non-local projection operator         9928
 Maximum index for augmentation-charges         7725 (set IRDMAX)


--------------------------------------------------------------------------------------------------------


 First call to EWALD:  gamma=   0.293
 Maximum number of real-space cells 3x 3x 3
 Maximum number of reciprocal cells 3x 3x 3

 FEWALD executed in parallel
    FEWALD:  cpu time    0.0020: real time    0.0019


----------------------------------------- Iteration    1(   1)  ---------------------------------------


    POTLOK:  cpu time    0.6039: real time    0.6046
    SETDIJ:  cpu time    0.0450: real time    0.0447
     EDDAV:  cpu time   62.1585: real time   62.0373
 BZINTS: Fermi energy: 12.000600; 84.000000 electrons
         Band energy:-317.754754;  BLOECHL correction: -0.114579
       DOS:  cpu time    0.0460: real time    0.0468
    --------------------------------------------
      LOOP:  cpu time   62.8564: real time   62.7374

 eigenvalue-minimisations  : 10568
 total energy-change (2. order) : 0.6483238E+03  (-0.4418413E+04)
 number of electron      84.0000000 magnetization       6.0000000
 augmentation part       84.0000000 magnetization       6.0000000

 Free energy of the ion-electron system (eV)
  ---------------------------------------------------
  alpha Z        PSCENC =       310.66020355
  Ewald energy   TEWEN  =     -4834.07732905
  -Hartree energ DENC   =     -2582.65381742
  -exchange      EXHF   =         0.00000000
  -V(xc)+E(xc)   XCENC  =       327.00146329
  PAW double counting   =      5123.26979619    -5096.34507177
  entropy T*S    EENTRO =         0.00000000
  eigenvalues    EBANDS =      -317.75475397
  atomic energy  EATOM  =      7718.22330708
  Solvation  Ediel_sol  =         0.00000000
  ---------------------------------------------------
  free energy    TOTEN  =       648.32379789 eV

  energy without entropy =      648.32379789  energy(sigma->0) =      648.32379789


--------------------------------------------------------------------------------------------------------




----------------------------------------- Iteration    1(   2)  ---------------------------------------


     EDDAV:  cpu time   72.9589: real time   73.0036
 BZINTS: Fermi energy:  4.533496; 84.000000 electrons
         Band energy:-976.239546;  BLOECHL correction: -0.032891
       DOS:  cpu time    0.0510: real time    0.0502
    --------------------------------------------
      LOOP:  cpu time   73.0109: real time   73.0576

 eigenvalue-minimisations  : 13040
 total energy-change (2. order) :-0.6584848E+03  (-0.6441739E+03)
 number of electron      84.0000000 magnetization       6.0000000
 augmentation part       84.0000000 magnetization       6.0000000

 Free energy of the ion-electron system (eV)
  ---------------------------------------------------
  alpha Z        PSCENC =       310.66020355
  Ewald energy   TEWEN  =     -4834.07732905
  -Hartree energ DENC   =     -2582.65381742
  -exchange      EXHF   =         0.00000000
  -V(xc)+E(xc)   XCENC  =       327.00146329
  PAW double counting   =      5123.26979619    -5096.34507177
  entropy T*S    EENTRO =         0.00000000
  eigenvalues    EBANDS =      -976.23954614
  atomic energy  EATOM  =      7718.22330708
  Solvation  Ediel_sol  =         0.00000000
  ---------------------------------------------------
  free energy    TOTEN  =       -10.16099428 eV

  energy without entropy =      -10.16099428  energy(sigma->0) =      -10.16099428


--------------------------------------------------------------------------------------------------------




----------------------------------------- Iteration    1(   3)  ---------------------------------------


     EDDAV:  cpu time   70.5163: real time   70.5589
 BZINTS: Fermi energy:  3.866389; 84.000000 electrons
         Band energy:***********;  BLOECHL correction: -0.005624
       DOS:  cpu time    0.0460: real time    0.0467
    --------------------------------------------
      LOOP:  cpu time   70.5623: real time   70.6089

 eigenvalue-minimisations  : 13440
 total energy-change (2. order) :-0.4630601E+02  (-0.4600702E+02)
 number of electron      84.0000000 magnetization       6.0000000
 augmentation part       84.0000000 magnetization       6.0000000

 Free energy of the ion-electron system (eV)
  ---------------------------------------------------
  alpha Z        PSCENC =       310.66020355
  Ewald energy   TEWEN  =     -4834.07732905
  -Hartree energ DENC   =     -2582.65381742
  -exchange      EXHF   =         0.00000000
  -V(xc)+E(xc)   XCENC  =       327.00146329
  PAW double counting   =      5123.26979619    -5096.34507177
  entropy T*S    EENTRO =         0.00000000
  eigenvalues    EBANDS =     -1022.54556099
  atomic energy  EATOM  =      7718.22330708
  Solvation  Ediel_sol  =         0.00000000
  ---------------------------------------------------
  free energy    TOTEN  =       -56.46700912 eV

  energy without entropy =      -56.46700912  energy(sigma->0) =      -56.46700912


--------------------------------------------------------------------------------------------------------




----------------------------------------- Iteration    1(   4)  ---------------------------------------


     EDDAV:  cpu time   83.0464: real time   83.1046
 BZINTS: Fermi energy:  3.791655; 84.000000 electrons
         Band energy:***********;  BLOECHL correction: -0.005141
       DOS:  cpu time    0.0470: real time    0.0474
    --------------------------------------------
      LOOP:  cpu time   83.0964: real time   83.1825

 eigenvalue-minimisations  : 14888
 total energy-change (2. order) :-0.1529201E+01  (-0.1526889E+01)
 number of electron      84.0000000 magnetization       6.0000000
 augmentation part       84.0000000 magnetization       6.0000000

 Free energy of the ion-electron system (eV)
  ---------------------------------------------------
  alpha Z        PSCENC =       310.66020355
  Ewald energy   TEWEN  =     -4834.07732905
  -Hartree energ DENC   =     -2582.65381742
  -exchange      EXHF   =         0.00000000
  -V(xc)+E(xc)   XCENC  =       327.00146329
  PAW double counting   =      5123.26979619    -5096.34507177
  entropy T*S    EENTRO =         0.00000000
  eigenvalues    EBANDS =     -1024.07476170
  atomic energy  EATOM  =      7718.22330708
  Solvation  Ediel_sol  =         0.00000000
  ---------------------------------------------------
  free energy    TOTEN  =       -57.99620984 eV

  energy without entropy =      -57.99620984  energy(sigma->0) =      -57.99620984


--------------------------------------------------------------------------------------------------------




----------------------------------------- Iteration    1(   5)  ---------------------------------------


     EDDAV:  cpu time   75.8145: real time   75.7592
 BZINTS: Fermi energy:  3.788578; 84.000000 electrons
         Band energy:***********;  BLOECHL correction: -0.005131
       DOS:  cpu time    0.0410: real time    0.0405
    CHARGE:  cpu time    3.0075: real time    3.0091
    MIXING:  cpu time    0.0130: real time    0.0129
    --------------------------------------------
      LOOP:  cpu time   78.8760: real time   78.8251

 eigenvalue-minimisations  : 14000
 total energy-change (2. order) :-0.3533850E-01  (-0.3533251E-01)
 number of electron      84.0000030 magnetization       0.6908910
 augmentation part       16.1671605 magnetization       0.6832933

 Broyden mixing:
  rms(total) = 0.19047E+01    rms(broyden)= 0.19044E+01
  rms(prec ) = 0.34732E+01
  weight for this iteration     100.00

 Free energy of the ion-electron system (eV)
  ---------------------------------------------------
  alpha Z        PSCENC =       310.66020355
  Ewald energy   TEWEN  =     -4834.07732905
  -Hartree energ DENC   =     -2582.65381742
  -exchange      EXHF   =         0.00000000
  -V(xc)+E(xc)   XCENC  =       327.00146329
  PAW double counting   =      5123.26979619    -5096.34507177
  entropy T*S    EENTRO =         0.00000000
  eigenvalues    EBANDS =     -1024.11010020
  atomic energy  EATOM  =      7718.22330708
  Solvation  Ediel_sol  =         0.00000000
  ---------------------------------------------------
  free energy    TOTEN  =       -58.03154834 eV

  energy without entropy =      -58.03154834  energy(sigma->0) =      -58.03154834


--------------------------------------------------------------------------------------------------------




----------------------------------------- Iteration    1(   6)  ---------------------------------------


    POTLOK:  cpu time    0.5629: real time    0.5639
    SETDIJ:  cpu time    0.0410: real time    0.0408
    EDDIAG:  cpu time    9.6145: real time    9.6224
  RMM-DIIS:  cpu time   47.1478: real time   47.1780
    ORTHCH:  cpu time    0.9838: real time    0.9838
 BZINTS: Fermi energy:  1.914517; 84.000000 electrons
         Band energy:-953.764817;  BLOECHL correction: -0.000972
       DOS:  cpu time    0.0490: real time    0.0498
    CHARGE:  cpu time    3.3675: real time    3.3689
    MIXING:  cpu time    0.0140: real time    0.0141
    --------------------------------------------
      LOOP:  cpu time   61.7806: real time   61.8250

 eigenvalue-minimisations  : 12182
 total energy-change (2. order) : 0.4353903E+01  (-0.3922323E+01)
 number of electron      84.0000027 magnetization       1.5221761
 augmentation part       15.9739603 magnetization      -0.1208029

 Broyden mixing:
  rms(total) = 0.94878E+00    rms(broyden)= 0.94836E+00
  rms(prec ) = 0.16715E+01
  weight for this iteration     100.00

 eigenvalues of (default mixing * dielectric matrix)
  average eigenvalue GAMMA=   0.6748
  0.6748

 Free energy of the ion-electron system (eV)
  ---------------------------------------------------
  alpha Z        PSCENC =       310.66020355
  Ewald energy   TEWEN  =     -4834.07732905
  -Hartree energ DENC   =     -2648.17221839
  -exchange      EXHF   =         0.00000000
  -V(xc)+E(xc)   XCENC  =       331.95385579
  PAW double counting   =      5277.33379238    -5255.83443977
  entropy T*S    EENTRO =         0.00000000
  eigenvalues    EBANDS =      -953.76481664
  atomic energy  EATOM  =      7718.22330708
  Solvation  Ediel_sol  =         0.00000000
  ---------------------------------------------------
  free energy    TOTEN  =       -53.67764505 eV

  energy without entropy =      -53.67764505  energy(sigma->0) =      -53.67764505


--------------------------------------------------------------------------------------------------------




----------------------------------------- Iteration    1(   7)  ---------------------------------------


    POTLOK:  cpu time    0.6069: real time    0.6077
    SETDIJ:  cpu time    0.0460: real time    0.0454
    EDDIAG:  cpu time   10.3954: real time   10.4014
  RMM-DIIS:  cpu time   51.6012: real time   51.6322
    ORTHCH:  cpu time    0.9699: real time    0.9706
 BZINTS: Fermi energy:  2.641236; 84.000000 electrons
         Band energy:-945.581208;  BLOECHL correction: -0.000724
       DOS:  cpu time    0.0510: real time    0.0507
    CHARGE:  cpu time    3.3625: real time    3.3670
    MIXING:  cpu time    0.0130: real time    0.0129
    --------------------------------------------
      LOOP:  cpu time   67.0458: real time   67.0909

 eigenvalue-minimisations  : 12397
 total energy-change (2. order) : 0.1180338E+01  (-0.2137092E+00)
 number of electron      84.0000027 magnetization       1.9387549
 augmentation part       16.0330263 magnetization       0.3339295

 Broyden mixing:
  rms(total) = 0.37378E+00    rms(broyden)= 0.37378E+00
  rms(prec ) = 0.89296E+00
  weight for this iteration     100.00

 eigenvalues of (default mixing * dielectric matrix)
  average eigenvalue GAMMA=   0.8484
  0.8484  0.8484

 Free energy of the ion-electron system (eV)
  ---------------------------------------------------
  alpha Z        PSCENC =       310.66020355
  Ewald energy   TEWEN  =     -4834.07732905
  -Hartree energ DENC   =     -2656.21435913
  -exchange      EXHF   =         0.00000000
  -V(xc)+E(xc)   XCENC  =       331.74439065
  PAW double counting   =      5309.41198195    -5286.66429429
  entropy T*S    EENTRO =         0.00000000
  eigenvalues    EBANDS =      -945.58120808
  atomic energy  EATOM  =      7718.22330708
  Solvation  Ediel_sol  =         0.00000000
  ---------------------------------------------------
  free energy    TOTEN  =       -52.49730732 eV

  energy without entropy =      -52.49730732  energy(sigma->0) =      -52.49730732


--------------------------------------------------------------------------------------------------------




----------------------------------------- Iteration    1(   8)  ---------------------------------------


    POTLOK:  cpu time    0.6029: real time    0.6032
    SETDIJ:  cpu time    0.0440: real time    0.0442
    EDDIAG:  cpu time   10.3934: real time   10.3992
  RMM-DIIS:  cpu time   48.5236: real time   48.5558
    ORTHCH:  cpu time    0.8729: real time    0.8735
 BZINTS: Fermi energy:  3.620477; 84.000000 electrons
         Band energy:-924.160281;  BLOECHL correction: -0.001855
       DOS:  cpu time    0.0500: real time    0.0501
    CHARGE:  cpu time    2.9715: real time    2.9727
    MIXING:  cpu time    0.0130: real time    0.0134
    --------------------------------------------
      LOOP:  cpu time   63.4723: real time   63.5153

 eigenvalue-minimisations  : 12422
 total energy-change (2. order) : 0.5041538E+00  (-0.1304042E+00)
 number of electron      84.0000027 magnetization       1.9728048
 augmentation part       15.8352508 magnetization       0.2697531

 Broyden mixing:
  rms(total) = 0.19607E+00    rms(broyden)= 0.19600E+00
  rms(prec ) = 0.36631E+00
  weight for this iteration     100.00

 eigenvalues of (default mixing * dielectric matrix)
  average eigenvalue GAMMA=   0.8862
  0.8292  0.9147  0.9147

 Free energy of the ion-electron system (eV)
  ---------------------------------------------------
  alpha Z        PSCENC =       310.66020355
  Ewald energy   TEWEN  =     -4834.07732905
  -Hartree energ DENC   =     -2678.39303728
  -exchange      EXHF   =         0.00000000
  -V(xc)+E(xc)   XCENC  =       332.45507542
  PAW double counting   =      5365.43547913    -5342.13657167
  entropy T*S    EENTRO =         0.00000000
  eigenvalues    EBANDS =      -924.16028070
  atomic energy  EATOM  =      7718.22330708
  Solvation  Ediel_sol  =         0.00000000
  ---------------------------------------------------
  free energy    TOTEN  =       -51.99315353 eV

  energy without entropy =      -51.99315353  energy(sigma->0) =      -51.99315353


--------------------------------------------------------------------------------------------------------




----------------------------------------- Iteration    1(   9)  ---------------------------------------


    POTLOK:  cpu time    0.5779: real time    0.5783
    SETDIJ:  cpu time    0.0420: real time    0.0414
    EDDIAG:  cpu time    9.6525: real time    9.6583
  RMM-DIIS:  cpu time   48.3337: real time   48.3840
    ORTHCH:  cpu time    0.8379: real time    0.8393
 BZINTS: Fermi energy:  3.571475; 84.000000 electrons
         Band energy:-922.927300;  BLOECHL correction: -0.001078
       DOS:  cpu time    0.0500: real time    0.0496
    CHARGE:  cpu time    2.7556: real time    2.7684
    MIXING:  cpu time    0.0140: real time    0.0141
    --------------------------------------------
      LOOP:  cpu time   62.2655: real time   62.3369

 eigenvalue-minimisations  : 12535
 total energy-change (2. order) : 0.4584491E-01  (-0.8648703E-02)
 number of electron      84.0000027 magnetization       2.0894640
 augmentation part       15.8686610 magnetization       0.3205678

 Broyden mixing:
  rms(total) = 0.95916E-01    rms(broyden)= 0.95913E-01
  rms(prec ) = 0.17385E+00
  weight for this iteration     100.00

 eigenvalues of (default mixing * dielectric matrix)
  average eigenvalue GAMMA=   1.1217
  2.0198  0.7945  0.7945  0.8779

 Free energy of the ion-electron system (eV)
  ---------------------------------------------------
  alpha Z        PSCENC =       310.66020355
  Ewald energy   TEWEN  =     -4834.07732905
  -Hartree energ DENC   =     -2679.48113033
  -exchange      EXHF   =         0.00000000
  -V(xc)+E(xc)   XCENC  =       332.42975785
  PAW double counting   =      5373.34572210    -5350.12054010
  entropy T*S    EENTRO =         0.00000000
  eigenvalues    EBANDS =      -922.92729971
  atomic energy  EATOM  =      7718.22330708
  Solvation  Ediel_sol  =         0.00000000
  ---------------------------------------------------
  free energy    TOTEN  =       -51.94730862 eV

  energy without entropy =      -51.94730862  energy(sigma->0) =      -51.94730862


--------------------------------------------------------------------------------------------------------




----------------------------------------- Iteration    1(  10)  ---------------------------------------


    POTLOK:  cpu time    0.5759: real time    0.5760
    SETDIJ:  cpu time    0.0410: real time    0.0412
    EDDIAG:  cpu time    9.6965: real time    9.7024
  RMM-DIIS:  cpu time   48.3746: real time   48.4046
    ORTHCH:  cpu time    0.8999: real time    0.9000
 BZINTS: Fermi energy:  3.631570; 84.000000 electrons
         Band energy:-917.881171;  BLOECHL correction: -0.001138
       DOS:  cpu time    0.0490: real time    0.0489
    CHARGE:  cpu time    3.0215: real time    3.0237
    MIXING:  cpu time    0.0150: real time    0.0145
    --------------------------------------------
      LOOP:  cpu time   62.6735: real time   62.7144

 eigenvalue-minimisations  : 12500
 total energy-change (2. order) : 0.6035904E-02  (-0.6295352E-02)
 number of electron      84.0000027 magnetization       2.0236048
 augmentation part       15.8584264 magnetization       0.2461706

 Broyden mixing:
  rms(total) = 0.50061E-01    rms(broyden)= 0.50057E-01
  rms(prec ) = 0.94320E-01
  weight for this iteration     100.00

 eigenvalues of (default mixing * dielectric matrix)
  average eigenvalue GAMMA=   1.1690
  2.4235  1.0752  0.8165  0.8165  0.7134

 Free energy of the ion-electron system (eV)
  ---------------------------------------------------
  alpha Z        PSCENC =       310.66020355
  Ewald energy   TEWEN  =     -4834.07732905
  -Hartree energ DENC   =     -2684.71332888
  -exchange      EXHF   =         0.00000000
  -V(xc)+E(xc)   XCENC  =       332.60177051
  PAW double counting   =      5388.10374467    -5364.85846939
  entropy T*S    EENTRO =         0.00000000
  eigenvalues    EBANDS =      -917.88117121
  atomic energy  EATOM  =      7718.22330708
  Solvation  Ediel_sol  =         0.00000000
  ---------------------------------------------------
  free energy    TOTEN  =       -51.94127272 eV

  energy without entropy =      -51.94127272  energy(sigma->0) =      -51.94127272


--------------------------------------------------------------------------------------------------------




----------------------------------------- Iteration    1(  11)  ---------------------------------------


    POTLOK:  cpu time    0.5769: real time    0.5769
    SETDIJ:  cpu time    0.0420: real time    0.0422
    EDDIAG:  cpu time    9.6015: real time    9.6072
  RMM-DIIS:  cpu time   48.9436: real time   48.9730
    ORTHCH:  cpu time    0.8919: real time    0.8921
 BZINTS: Fermi energy:  3.589130; 84.000000 electrons
         Band energy:-918.774337;  BLOECHL correction: -0.001020
       DOS:  cpu time    0.0500: real time    0.0501
    CHARGE:  cpu time    2.9586: real time    2.9599
    MIXING:  cpu time    0.0130: real time    0.0130
    --------------------------------------------
      LOOP:  cpu time   63.0774: real time   63.1174

 eigenvalue-minimisations  : 12806
 total energy-change (2. order) : 0.6642657E-03  (-0.1246760E-02)
 number of electron      84.0000027 magnetization       1.9832490
 augmentation part       15.8900193 magnetization       0.2386124

 Broyden mixing:
  rms(total) = 0.27090E-01    rms(broyden)= 0.27086E-01
  rms(prec ) = 0.59325E-01
  weight for this iteration     100.00

 eigenvalues of (default mixing * dielectric matrix)
  average eigenvalue GAMMA=   1.1191
  2.4932  0.8914  0.8914  0.9057  0.9057  0.6269

 Free energy of the ion-electron system (eV)
  ---------------------------------------------------
  alpha Z        PSCENC =       310.66020355
  Ewald energy   TEWEN  =     -4834.07732905
  -Hartree energ DENC   =     -2683.70912936
  -exchange      EXHF   =         0.00000000
  -V(xc)+E(xc)   XCENC  =       332.53927878
  PAW double counting   =      5383.95660115    -5360.75920394
  entropy T*S    EENTRO =         0.00000000
  eigenvalues    EBANDS =      -918.77433665
  atomic energy  EATOM  =      7718.22330708
  Solvation  Ediel_sol  =         0.00000000
  ---------------------------------------------------
  free energy    TOTEN  =       -51.94060845 eV

  energy without entropy =      -51.94060845  energy(sigma->0) =      -51.94060845


--------------------------------------------------------------------------------------------------------




----------------------------------------- Iteration    1(  12)  ---------------------------------------


    POTLOK:  cpu time    0.5739: real time    0.5748
    SETDIJ:  cpu time    0.0420: real time    0.0421
    EDDIAG:  cpu time    9.5985: real time    9.6044
  RMM-DIIS:  cpu time   47.5248: real time   47.5563
    ORTHCH:  cpu time    0.7769: real time    0.7769
 BZINTS: Fermi energy:  3.644502; 84.000000 electrons
         Band energy:-917.337949;  BLOECHL correction: -0.001079
       DOS:  cpu time    0.0470: real time    0.0475
    CHARGE:  cpu time    2.5076: real time    2.5094
    MIXING:  cpu time    0.0130: real time    0.0134
    --------------------------------------------
      LOOP:  cpu time   61.0857: real time   61.1276

 eigenvalue-minimisations  : 12910
 total energy-change (2. order) : 0.5719608E-04  (-0.4856643E-03)
 number of electron      84.0000027 magnetization       1.9785578
 augmentation part       15.8714378 magnetization       0.2171718

 Broyden mixing:
  rms(total) = 0.15308E-01    rms(broyden)= 0.15307E-01
  rms(prec ) = 0.28269E-01
  weight for this iteration     100.00

 eigenvalues of (default mixing * dielectric matrix)
  average eigenvalue GAMMA=   1.1833
  2.2512  2.1059  0.8708  0.8708  0.8671  0.7475  0.5695

 Free energy of the ion-electron system (eV)
  ---------------------------------------------------
  alpha Z        PSCENC =       310.66020355
  Ewald energy   TEWEN  =     -4834.07732905
  -Hartree energ DENC   =     -2685.21452332
  -exchange      EXHF   =         0.00000000
  -V(xc)+E(xc)   XCENC  =       332.58763728
  PAW double counting   =      5384.49980679    -5361.28170486
  entropy T*S    EENTRO =         0.00000000
  eigenvalues    EBANDS =      -917.33794873
  atomic energy  EATOM  =      7718.22330708
  Solvation  Ediel_sol  =         0.00000000
  ---------------------------------------------------
  free energy    TOTEN  =       -51.94055126 eV

  energy without entropy =      -51.94055126  energy(sigma->0) =      -51.94055126


--------------------------------------------------------------------------------------------------------




----------------------------------------- Iteration    1(  13)  ---------------------------------------


    POTLOK:  cpu time    0.5099: real time    0.5106
    SETDIJ:  cpu time    0.0360: real time    0.0359
    EDDIAG:  cpu time    7.1429: real time    7.1470
  RMM-DIIS:  cpu time   37.3123: real time   37.3348
    ORTHCH:  cpu time    0.7479: real time    0.7486
 BZINTS: Fermi energy:  3.635176; 84.000000 electrons
         Band energy:-917.426073;  BLOECHL correction: -0.001040
       DOS:  cpu time    0.0470: real time    0.0479
    CHARGE:  cpu time    2.4376: real time    2.4386
    MIXING:  cpu time    0.0110: real time    0.0108
    --------------------------------------------
      LOOP:  cpu time   48.2467: real time   48.3072

 eigenvalue-minimisations  : 13286
 total energy-change (2. order) :-0.6784321E-04  (-0.8913481E-04)
 number of electron      84.0000027 magnetization       1.9958530
 augmentation part       15.8793937 magnetization       0.2416606

 Broyden mixing:
  rms(total) = 0.35104E-02    rms(broyden)= 0.35094E-02
  rms(prec ) = 0.64918E-02
  weight for this iteration     100.00

 eigenvalues of (default mixing * dielectric matrix)
  average eigenvalue GAMMA=   1.2223
  2.5886  2.3851  0.8517  0.8517  0.9643  0.8634  0.6983  0.5754

 Free energy of the ion-electron system (eV)
  ---------------------------------------------------
  alpha Z        PSCENC =       310.66020355
  Ewald energy   TEWEN  =     -4834.07732905
  -Hartree energ DENC   =     -2685.10429834
  -exchange      EXHF   =         0.00000000
  -V(xc)+E(xc)   XCENC  =       332.57693886
  PAW double counting   =      5381.96697359    -5358.76034227
  entropy T*S    EENTRO =         0.00000000
  eigenvalues    EBANDS =      -917.42607251
  atomic energy  EATOM  =      7718.22330708
  Solvation  Ediel_sol  =         0.00000000
  ---------------------------------------------------
  free energy    TOTEN  =       -51.94061910 eV

  energy without entropy =      -51.94061910  energy(sigma->0) =      -51.94061910


--------------------------------------------------------------------------------------------------------




----------------------------------------- Iteration    1(  14)  ---------------------------------------


    POTLOK:  cpu time    0.4799: real time    0.4799
    SETDIJ:  cpu time    0.0350: real time    0.0350
    EDDIAG:  cpu time    7.0739: real time    7.0783
  RMM-DIIS:  cpu time   35.5606: real time   35.5817
    ORTHCH:  cpu time    0.7479: real time    0.7488
 BZINTS: Fermi energy:  3.642497; 84.000000 electrons
         Band energy:-917.226770;  BLOECHL correction: -0.001055
       DOS:  cpu time    0.0480: real time    0.0483
    CHARGE:  cpu time    2.4366: real time    2.4389
    MIXING:  cpu time    0.0110: real time    0.0111
    --------------------------------------------
      LOOP:  cpu time   46.3949: real time   46.4386

 eigenvalue-minimisations  : 12470
 total energy-change (2. order) :-0.3826180E-04  (-0.2560505E-04)
 number of electron      84.0000027 magnetization       2.0001243
 augmentation part       15.8767170 magnetization       0.2430362

 Broyden mixing:
  rms(total) = 0.29999E-02    rms(broyden)= 0.29996E-02
  rms(prec ) = 0.62568E-02
  weight for this iteration     100.00

 eigenvalues of (default mixing * dielectric matrix)
  average eigenvalue GAMMA=   1.2441
  2.8389  2.4708  1.0859  1.0859  0.8355  0.8355  0.8411  0.6457  0.5579

 Free energy of the ion-electron system (eV)
  ---------------------------------------------------
  alpha Z        PSCENC =       310.66020355
  Ewald energy   TEWEN  =     -4834.07732905
  -Hartree energ DENC   =     -2685.32127272
  -exchange      EXHF   =         0.00000000
  -V(xc)+E(xc)   XCENC  =       332.58536998
  PAW double counting   =      5381.81151684    -5358.59568278
  entropy T*S    EENTRO =         0.00000000
  eigenvalues    EBANDS =      -917.22677026
  atomic energy  EATOM  =      7718.22330708
  Solvation  Ediel_sol  =         0.00000000
  ---------------------------------------------------
  free energy    TOTEN  =       -51.94065736 eV

  energy without entropy =      -51.94065736  energy(sigma->0) =      -51.94065736


--------------------------------------------------------------------------------------------------------




----------------------------------------- Iteration    1(  15)  ---------------------------------------


    POTLOK:  cpu time    0.4929: real time    0.4933
    SETDIJ:  cpu time    0.0340: real time    0.0344
    EDDIAG:  cpu time    7.1049: real time    7.1083
  RMM-DIIS:  cpu time   31.8702: real time   31.7756
    ORTHCH:  cpu time    0.7459: real time    0.7460
 BZINTS: Fermi energy:  3.636769; 84.000000 electrons
         Band energy:-917.356177;  BLOECHL correction: -0.001045
       DOS:  cpu time    0.0460: real time    0.0462
    CHARGE:  cpu time    2.4596: real time    2.4607
    MIXING:  cpu time    0.0120: real time    0.0122
    --------------------------------------------
      LOOP:  cpu time   42.7655: real time   42.6814

 eigenvalue-minimisations  : 10761
 total energy-change (2. order) : 0.1176197E-04  (-0.8247738E-05)
 number of electron      84.0000027 magnetization       2.0004656
 augmentation part       15.8789064 magnetization       0.2452918

 Broyden mixing:
  rms(total) = 0.14272E-02    rms(broyden)= 0.14269E-02
  rms(prec ) = 0.31406E-02
  weight for this iteration     100.00

 eigenvalues of (default mixing * dielectric matrix)
  average eigenvalue GAMMA=   1.2214
  3.0136  2.4113  1.2351  0.8711  0.8711  0.9469  0.9469  0.7489  0.6387  0.5298

 Free energy of the ion-electron system (eV)
  ---------------------------------------------------
  alpha Z        PSCENC =       310.66020355
  Ewald energy   TEWEN  =     -4834.07732905
  -Hartree energ DENC   =     -2685.18716457
  -exchange      EXHF   =         0.00000000
  -V(xc)+E(xc)   XCENC  =       332.57982492
  PAW double counting   =      5381.42994366    -5358.21325427
  entropy T*S    EENTRO =         0.00000000
  eigenvalues    EBANDS =      -917.35617691
  atomic energy  EATOM  =      7718.22330708
  Solvation  Ediel_sol  =         0.00000000
  ---------------------------------------------------
  free energy    TOTEN  =       -51.94064560 eV

  energy without entropy =      -51.94064560  energy(sigma->0) =      -51.94064560


--------------------------------------------------------------------------------------------------------




----------------------------------------- Iteration    1(  16)  ---------------------------------------


    POTLOK:  cpu time    0.4829: real time    0.4832
    SETDIJ:  cpu time    0.0340: real time    0.0345
    EDDIAG:  cpu time    7.1439: real time    7.1487
  RMM-DIIS:  cpu time   27.7558: real time   27.7713
    ORTHCH:  cpu time    0.7449: real time    0.7455
 BZINTS: Fermi energy:  3.639464; 84.000000 electrons
         Band energy:-917.303509;  BLOECHL correction: -0.001050
       DOS:  cpu time    0.0450: real time    0.0447
    --------------------------------------------
      LOOP:  cpu time   36.2085: real time   36.2320

 eigenvalue-minimisations  :  9303
 total energy-change (2. order) :-0.4691714E-05  (-0.3098507E-05)
 number of electron      84.0000027 magnetization       2.0004656
 augmentation part       15.8789064 magnetization       0.2452918

 Free energy of the ion-electron system (eV)
  ---------------------------------------------------
  alpha Z        PSCENC =       310.66020355
  Ewald energy   TEWEN  =     -4834.07732905
  -Hartree energ DENC   =     -2685.24776702
  -exchange      EXHF   =         0.00000000
  -V(xc)+E(xc)   XCENC  =       332.58192645
  PAW double counting   =      5381.44094702    -5358.21842905
  entropy T*S    EENTRO =         0.00000000
  eigenvalues    EBANDS =      -917.30350926
  atomic energy  EATOM  =      7718.22330708
  Solvation  Ediel_sol  =         0.00000000
  ---------------------------------------------------
  free energy    TOTEN  =       -51.94065029 eV

  energy without entropy =      -51.94065029  energy(sigma->0) =      -51.94065029


[...]
     21      -9.4458      1.00000
     22      -9.4411      1.00000
     23      -5.6506      1.00000
     24      -5.0354      1.00000
     25      -4.8577      1.00000
     26      -4.3399      1.00000
     27      -4.2864      1.00000
     28      -4.2099      1.00000
     29      -4.1649      1.00000
     30      -4.0015      1.00000
     31      -3.8467      1.00000
     32      -3.5544      1.00000
     33      -3.4360      1.00000
     34      -3.3639      1.00000
     35      -3.3239      1.00000
     36      -3.3028      1.00000
     37      -3.2945      1.00000
     38      -2.9861      1.00000
     39      -2.9615      1.00000
     40      -2.9269      1.00000
     41      -1.6808      1.00000
     42       4.0988      0.00000
     43       4.5010      0.00000
     44       4.6618      0.00000
     45       4.9552      0.00000
     46       4.9913      0.00000
     47       5.0239      0.00000
     48       6.4272      0.00000
     49       6.6770      0.00000
     50       6.7342      0.00000
     51       7.0764      0.00000
     52       7.6381      0.00000
     53       7.6564      0.00000
     54       8.1421      0.00000
     55       8.1578      0.00000
     56       8.3993      0.00000

 k-point    46 :      -0.3000    0.4000    0.2000
  band No.  band energies     occupation 
      1     -32.5754      1.00000
      2     -32.5754      1.00000
      3     -32.5754      1.00000
      4     -25.8417      1.00000
      5     -25.8417      1.00000
      6     -22.3336      1.00000
      7     -22.1717      1.00000
      8     -22.1621      1.00000
      9     -21.8622      1.00000
     10     -21.8565      1.00000
     11     -21.8561      1.00000
     12     -10.0209      1.00000
     13     -10.0100      1.00000
     14      -9.9909      1.00000
     15      -9.9900      1.00000
     16      -9.9514      1.00000
     17      -9.9466      1.00000
     18      -9.4704      1.00000
     19      -9.4592      1.00000
     20      -9.4495      1.00000
     21      -9.4478      1.00000
     22      -9.4415      1.00000
     23      -5.6514      1.00000
     24      -5.0620      1.00000
     25      -4.8260      1.00000
     26      -4.3200      1.00000
     27      -4.3185      1.00000
     28      -4.2050      1.00000
     29      -4.1464      1.00000
     30      -3.9525      1.00000
     31      -3.8912      1.00000
     32      -3.5274      1.00000
     33      -3.4623      1.00000
     34      -3.3826      1.00000
     35      -3.3318      1.00000
     36      -3.3085      1.00000
     37      -3.2971      1.00000
     38      -2.9906      1.00000
     39      -2.9463      1.00000
     40      -2.9439      1.00000
     41      -1.6894      1.00000
     42       4.2639      0.00000
     43       4.3791      0.00000
     44       4.6571      0.00000
     45       4.9737      0.00000
     46       4.9823      0.00000
     47       4.9937      0.00000
     48       6.3910      0.00000
     49       6.6871      0.00000
     50       6.7517      0.00000
     51       7.2859      0.00000
     52       7.5161      0.00000
     53       7.7292      0.00000
     54       7.9860      0.00000
     55       8.2145      0.00000
     56       8.4001      0.00000

 k-point    47 :      -0.3000    0.5000    0.2000
  band No.  band energies     occupation 
      1     -32.5754      1.00000
      2     -32.5754      1.00000
      3     -32.5754      1.00000
      4     -25.8422      1.00000
      5     -25.8412      1.00000
      6     -22.3336      1.00000
      7     -22.1730      1.00000
      8     -22.1617      1.00000
      9     -21.8604      1.00000
     10     -21.8570      1.00000
     11     -21.8564      1.00000
     12     -10.0220      1.00000
     13     -10.0104      1.00000
     14      -9.9994      1.00000
     15      -9.9804      1.00000
     16      -9.9515      1.00000
     17      -9.9422      1.00000
     18      -9.4721      1.00000
     19      -9.4607      1.00000
     20      -9.4508      1.00000
     21      -9.4469      1.00000
     22      -9.4422      1.00000
     23      -5.6946      1.00000
     24      -5.0294      1.00000
     25      -4.7904      1.00000
     26      -4.3460      1.00000
     27      -4.2907      1.00000
     28      -4.1992      1.00000
     29      -4.0074      1.00000
     30      -3.9972      1.00000
     31      -3.9656      1.00000
     32      -3.5197      1.00000
     33      -3.4557      1.00000
     34      -3.4199      1.00000
     35      -3.3204      1.00000
     36      -3.3203      1.00000
     37      -3.3045      1.00000
     38      -2.9943      1.00000
     39      -2.9603      1.00000
     40      -2.9276      1.00000
     41      -1.7503      1.00000
     42       4.2576      0.00000
     43       4.5042      0.00000
     44       4.6582      0.00000
     45       4.9776      0.00000
     46       4.9810      0.00000
     47       4.9825      0.00000
     48       6.3223      0.00000
     49       6.5905      0.00000
     50       6.7951      0.00000
     51       7.4174      0.00000
     52       7.6504      0.00000
     53       7.6867      0.00000
     54       7.9604      0.00000
     55       8.1473      0.00000
     56       8.3443      0.00000


--------------------------------------------------------------------------------------------------------


 soft charge-density along one line, spin component           1
         0         1         2         3         4         5         6         7         8         9
 total charge-density along one line
 
 soft charge-density along one line, spin component           2
         0         1         2         3         4         5         6         7         8         9
 total charge-density along one line
 
 pseudopotential strength for first ion, spin component:           1
 -4.301  -3.753   0.000   0.000   0.000   0.000   0.000   0.000
 -3.753  -2.300   0.000   0.000   0.000   0.000   0.000   0.000
  0.000   0.000 -10.601   0.000   0.000   0.072   0.000   0.000
  0.000   0.000   0.000 -10.601   0.000   0.000   0.072   0.000
  0.000   0.000   0.000   0.000 -10.601   0.000   0.000   0.072
  0.000   0.000   0.072   0.000   0.000   0.057   0.000   0.000
  0.000   0.000   0.000   0.072   0.000   0.000   0.057   0.000
  0.000   0.000   0.000   0.000   0.072   0.000   0.000   0.057
  0.000   0.000   0.000   0.000   0.000   0.000   0.000   0.000
  0.000   0.000   0.000   0.000   0.000   0.000   0.000   0.000
  0.000   0.000   0.000   0.000   0.000   0.000   0.000   0.000
  0.000   0.000   0.000   0.000   0.000   0.000   0.000   0.000
  0.000   0.000   0.000   0.000   0.000   0.000   0.000   0.000
 pseudopotential strength for first ion, spin component:           2
 -4.315  -3.748   0.000   0.000   0.000   0.000   0.000   0.000
 -3.748  -2.301   0.000   0.000   0.000   0.000   0.000   0.000
  0.000   0.000 -10.599   0.000   0.000   0.072   0.000   0.000
  0.000   0.000   0.000 -10.599   0.000   0.000   0.072   0.000
  0.000   0.000   0.000   0.000 -10.599   0.000   0.000   0.072
  0.000   0.000   0.072   0.000   0.000   0.057   0.000   0.000
  0.000   0.000   0.000   0.072   0.000   0.000   0.057   0.000
  0.000   0.000   0.000   0.000   0.072   0.000   0.000   0.057
  0.000   0.000   0.000   0.000   0.000   0.000   0.000   0.000
  0.000   0.000   0.000   0.000   0.000   0.000   0.000   0.000
  0.000   0.000   0.000   0.000   0.000   0.000   0.000   0.000
  0.000   0.000   0.000   0.000   0.000   0.000   0.000   0.000
  0.000   0.000   0.000   0.000   0.000   0.000   0.000   0.000
 total augmentation occupancy for first ion, spin component:           1
  2.028  -0.074   0.000   0.000   0.000   0.000   0.000   0.000   0.000   0.000   0.000   0.000   0.000
 -0.074   0.194   0.000   0.000   0.000   0.000   0.000   0.000   0.000   0.000   0.000   0.000   0.000
  0.000   0.000   2.015   0.000   0.000  -0.004   0.000   0.000   0.000   0.004   0.000   0.000   0.006
  0.000   0.000   0.000   2.015   0.000   0.000  -0.004   0.000   0.000   0.000  -0.007   0.000   0.000
  0.000   0.000   0.000   0.000   2.015   0.000   0.000  -0.004   0.006   0.000   0.000   0.004   0.000
  0.000   0.000  -0.004   0.000   0.000   0.035   0.000   0.000   0.000  -0.002   0.000   0.000  -0.002
  0.000   0.000   0.000  -0.004   0.000   0.000   0.035   0.000   0.000   0.000   0.003   0.000   0.000
  0.000   0.000   0.000   0.000  -0.004   0.000   0.000   0.035  -0.002   0.000   0.000  -0.002   0.000
  0.000   0.000   0.000   0.000   0.006   0.000   0.000  -0.002   0.054   0.000   0.000   0.014   0.000
  0.000   0.000   0.004   0.000   0.000  -0.002   0.000   0.000   0.000   0.044   0.000   0.000   0.014
  0.000   0.000   0.000  -0.007   0.000   0.000   0.003   0.000   0.000   0.000   0.065   0.000   0.000
  0.000   0.000   0.000   0.000   0.004   0.000   0.000  -0.002   0.014   0.000   0.000   0.044   0.000
  0.000   0.000   0.006   0.000   0.000  -0.002   0.000   0.000   0.000   0.014   0.000   0.000   0.054
 total augmentation occupancy for first ion, spin component:           2
  0.013  -0.039   0.000   0.000   0.000   0.000   0.000   0.000   0.000   0.000   0.000   0.000   0.000
 -0.039   0.111   0.000   0.000   0.000   0.000   0.000   0.000   0.000   0.000   0.000   0.000   0.000
  0.000   0.000   0.001   0.000   0.000   0.000   0.000   0.000   0.000   0.000   0.000   0.000   0.000
  0.000   0.000   0.000   0.001   0.000   0.000   0.000   0.000   0.000   0.000   0.000   0.000   0.000
  0.000   0.000   0.000   0.000   0.001   0.000   0.000   0.000   0.000   0.000   0.000   0.000   0.000
  0.000   0.000   0.000   0.000   0.000   0.006   0.000   0.000   0.000   0.001   0.000   0.000   0.001
  0.000   0.000   0.000   0.000   0.000   0.000   0.006   0.000   0.000   0.000  -0.002   0.000   0.000
  0.000   0.000   0.000   0.000   0.000   0.000   0.000   0.006   0.001   0.000   0.000   0.001   0.000
  0.000   0.000   0.000   0.000   0.000   0.000   0.000   0.001   0.020   0.000   0.000   0.005   0.000
  0.000   0.000   0.000   0.000   0.000   0.001   0.000   0.000   0.000   0.016   0.000   0.000   0.005
  0.000   0.000   0.000   0.000   0.000   0.000  -0.002   0.000   0.000   0.000   0.024   0.000   0.000
  0.000   0.000   0.000   0.000   0.000   0.000   0.000   0.001   0.005   0.000   0.000   0.016   0.000
  0.000   0.000   0.000   0.000   0.000   0.001   0.000   0.000   0.000   0.005   0.000   0.000   0.020


------------------------ aborting loop because EDIFF is reached ----------------------------------------


 


 total charge     
 
# of ion     s       p       d       tot
----------------------------------------
  1        1.935   5.349   0.010   7.294
  2        1.935   5.349   0.010   7.294
  3        0.242   6.176   2.275   8.693
  4        1.304   0.144   9.677  11.124
  5        1.738   4.343   0.000   6.081
  6        1.739   4.339   0.000   6.078
  7        1.738   4.343   0.000   6.081
  8        1.738   4.337   0.000   6.076
  9        1.738   4.337   0.000   6.076
 10        1.739   4.339   0.000   6.078
------------------------------------------------
tot       15.847  43.056  11.971  70.874
 


 magnetization (x)
 
# of ion     s       p       d       tot
----------------------------------------
  1        0.004   0.003   0.004   0.011
  2        0.004   0.003   0.004   0.011
  3        0.018   0.008   1.219   1.246
  4       -0.002   0.065  -0.001   0.062
  5        0.002   0.013   0.000   0.015
  6        0.003   0.006   0.000   0.009
  7        0.002   0.013   0.000   0.015
  8        0.002   0.012   0.000   0.013
  9        0.002   0.012   0.000   0.013
 10        0.003   0.006   0.000   0.009
------------------------------------------------
tot        0.038   0.139   1.225   1.403
 
    CHARGE:  cpu time    2.4426: real time    2.4443
    FORLOC:  cpu time    0.0380: real time    0.0385
    FORNL :  cpu time   13.9449: real time   13.9523
    STRESS:  cpu time   41.9286: real time   41.9530
    FORCOR:  cpu time    0.4919: real time    0.4919
    FORHAR:  cpu time    0.0930: real time    0.0934
    MIXING:  cpu time    0.0120: real time    0.0122
    OFIELD:  cpu time    0.0000: real time    0.0000

  FORCE on cell =-STRESS in cart. coord.  units (eV):
  Direction    XX          YY          ZZ          XY          YZ          ZX
  --------------------------------------------------------------------------------------
  Alpha Z   310.66020   310.66020   310.66020
  Ewald   -1611.36193 -1611.36195 -1611.36194     0.00000    -0.00001     0.00000
  Hartree   895.06006   895.06007   895.06007     0.00002    -0.00001     0.00001
  E(xc)    -414.76154  -414.76158  -414.76159     0.00004     0.00001     0.00003
  Local    -575.24059  -575.24108  -575.24121     0.00035     0.00018     0.00025
  n-local  -333.15199  -334.01941  -332.80811     0.27815     0.15871    -1.50117
  augment   227.67175   227.67196   227.67202    -0.00018    -0.00007    -0.00013
  Kinetic  1501.95339  1502.31880  1499.28920    -2.23090     0.04000     3.31788
  Fock        0.00000     0.00000     0.00000     0.00000     0.00000     0.00000
  -------------------------------------------------------------------------------------
  Total      -0.11166    -0.11166    -0.11166     0.00000     0.00000     0.00000
  in kB      -0.80851    -0.80851    -0.80851     0.00000     0.00000     0.00000
  external pressure =       -0.81 kB  Pullay stress =        0.00 kB


 VOLUME and BASIS-vectors are now :
 -----------------------------------------------------------------------------
  energy-cutoff  :      520.00
  volume of cell :      221.27
      direct lattice vectors                 reciprocal lattice vectors
     6.789073599 -0.000000132 -0.000000093     0.147295499 -0.085041103 -0.060133141
     3.394537083  5.879510228 -0.000000047     0.000000002  0.170082192 -0.060133136
     3.394537083  1.959836699  5.543255409     0.000000002  0.000000000  0.180399408

  length of vectors
     6.789073599  6.789073760  6.789073753     0.180399412  0.180399407  0.180399408


 FORCES acting on ions
    electron-ion (+dipol)            ewald-force                    non-local-force                 convergence-correction
 -----------------------------------------------------------------------------------------------
   0.466E-05 -.158E-05 -.861E-06   -.507E-05 0.178E-05 0.969E-06   0.000E+00 -.304E-17 -.867E-17   0.539E-08 -.566E-08 -.346E-08
   -.466E-05 0.158E-05 0.861E-06   0.507E-05 -.178E-05 -.969E-06   -.130E-17 0.520E-17 0.607E-17   -.539E-08 0.566E-08 0.346E-08
   0.347E-13 0.236E-13 0.232E-13   0.568E-13 0.142E-13 -.284E-13   0.000E+00 0.165E-22 -.132E-22   -.164E-13 -.306E-13 0.217E-13
   -.643E-12 -.770E-12 -.180E-11   -.142E-13 -.711E-14 -.853E-13   -.794E-22 0.265E-22 -.529E-22   0.596E-13 0.630E-13 -.138E-14
   -.132E+03 0.762E+02 -.108E+03   0.145E+03 -.835E+02 0.118E+03   -.126E+02 0.726E+01 -.103E+02   -.123E-01 0.711E-02 -.100E-01
   0.132E+03 0.762E+02 -.108E+03   -.145E+03 -.835E+02 0.118E+03   0.126E+02 0.726E+01 -.103E+02   0.123E-01 0.710E-02 -.100E-01
   0.132E+03 -.762E+02 0.108E+03   -.145E+03 0.835E+02 -.118E+03   0.126E+02 -.726E+01 0.103E+02   0.123E-01 -.711E-02 0.100E-01
   -.652E-05 -.152E+03 -.108E+03   0.107E-04 0.167E+03 0.118E+03   -.105E-05 -.145E+02 -.103E+02   0.116E-05 -.142E-01 -.100E-01
   0.652E-05 0.152E+03 0.108E+03   -.107E-04 -.167E+03 -.118E+03   0.105E-05 0.145E+02 0.103E+02   -.116E-05 0.142E-01 0.100E-01
   -.132E+03 -.762E+02 0.108E+03   0.145E+03 0.835E+02 -.118E+03   -.126E+02 -.726E+01 0.103E+02   -.123E-01 -.710E-02 0.100E-01
 -----------------------------------------------------------------------------------------------
   -.162E-11 -.536E-11 -.136E-11   -.568E-13 -.142E-13 -.142E-13   0.178E-14 0.000E+00 0.178E-14   0.354E-12 0.167E-12 -.234E-12
 
 
 POSITION                                       TOTAL-FORCE (eV/Angst)
 -----------------------------------------------------------------------------------
      3.39454      1.95984      1.38581         0.000000      0.000000      0.000000
     10.18361      5.87951      4.15744         0.000000      0.000000      0.000000
      0.00000      0.00000      0.00000         0.000000      0.000000      0.000000
      6.78907      3.91967      2.77163         0.000000      0.000000      0.000000
      4.85182      5.03815      1.18987        -0.011550      0.006669     -0.009431
      8.72633      5.03815      1.18987         0.011550      0.006669     -0.009431
      8.72633      2.80120      4.35339         0.011550     -0.006669      0.009431
      6.78907      1.68273      1.18987         0.000000     -0.013337     -0.009431
      6.78907      6.15662      4.35339         0.000000      0.013337      0.009431
      4.85182      2.80120      4.35339        -0.011550     -0.006669      0.009431
 -----------------------------------------------------------------------------------
    total drift:                                0.000000      0.000000      0.000000


--------------------------------------------------------------------------------------------------------



  FREE ENERGIE OF THE ION-ELECTRON SYSTEM (eV)
  ---------------------------------------------------
  free  energy   TOTEN  =       -51.94065029 eV

  energy  without entropy=      -51.94065029  energy(sigma->0) =      -51.94065029
 


--------------------------------------------------------------------------------------------------------


    POTLOK:  cpu time    0.5199: real time    0.5199


--------------------------------------------------------------------------------------------------------


     LOOP+:  cpu time 1045.1841: real time 1045.9647
    4ORBIT:  cpu time    0.0000: real time    0.0000
 


 total charge     
 
# of ion     s       p       d       tot
----------------------------------------
  1        1.935   5.349   0.010   7.294
  2        1.935   5.349   0.010   7.294
  3        0.242   6.176   2.275   8.693
  4        1.304   0.144   9.677  11.124
  5        1.738   4.343   0.000   6.081
  6        1.739   4.339   0.000   6.078
  7        1.738   4.343   0.000   6.081
  8        1.738   4.337   0.000   6.076
  9        1.738   4.337   0.000   6.076
 10        1.739   4.339   0.000   6.078
------------------------------------------------
tot       15.847  43.056  11.971  70.874
 


 magnetization (x)
 
# of ion     s       p       d       tot
----------------------------------------
  1        0.004   0.003   0.004   0.011
  2        0.004   0.003   0.004   0.011
  3        0.018   0.008   1.219   1.246
  4       -0.002   0.065  -0.001   0.062
  5        0.002   0.013   0.000   0.015
  6        0.003   0.006   0.000   0.009
  7        0.002   0.013   0.000   0.015
  8        0.002   0.012   0.000   0.013
  9        0.002   0.012   0.000   0.013
 10        0.003   0.006   0.000   0.009
------------------------------------------------
tot        0.038   0.139   1.225   1.403
 
 BZINTS: Fermi energy:  3.639464; 84.000000 electrons
         Band energy:-917.303509;  BLOECHL correction: -0.001050

 total amount of memory used by VASP on root node   209986. kBytes
========================================================================

   base      :      30000. kBytes
   nonlr-proj:       7753. kBytes
   fftplans  :       9085. kBytes
   grid      :      34480. kBytes
   one-center:        311. kBytes
   wavefun   :     128357. kBytes
 
  
  
 General timing and accounting informations for this job:
 ========================================================
  
                  Total CPU time used (sec):     1060.578
                            User time (sec):     1052.984
                          System time (sec):        7.594
                         Elapsed time (sec):     1062.847
  
                   Maximum memory used (kb):      245356.
                   Average memory used (kb):           0.
  
                          Minor page faults:      4340144
                          Major page faults:           46
                 Voluntary context switches:         8705
